s.runSiesta: Submission time = 08s02m16h
s.runSiesta: Job name = q64_b212_g1_mumps_ptscotch_s32_p64
s.runSiesta: Number of ranks = 64
s.runSiesta: Number of slices = 32
08s02m16h
-ioptbin 2
-ioptinertia 1
-ioptleft 2
-isglobal 1
-roptleft -2.2
-roptright -0.2
-writeeigs 1
-roptbuffer 0.1
-roptdiff 0.01
# A chain of identical atoms (instead of an xyz file) can be specified with the following options
#-N 10 # Number of atoms
#-Z 8 # Atomic number
#-c 32 # Maximum number of interactions of an atom

# A petsc matrix (binary) can be given
#-method file
#-fA '/Volumes/s/matrices/petscbinary/graphene_xxs_A'
#-fB '/Volumes/s/matrices/petscbinary/graphene_xxs_B'
#-scfthresh 1.e-3

#PETSc options

-log_view
#-mat_mumps_icntl_13 1 #turn off scaLAPACK for matrix inertia
#-mat_mumps_icntl_24 1 #null pivot row detection for matrix inertia
#-mat_mumps_icntl_23 0
#-mat_mumps_icntl_28 1
-mat_mumps_icntl_28 2
-mat_mumps_icntl_29 1 # ptscotch
#-mat_mumps_icntl_29 2 # parmetis
#-malloc_info
#-mat_view ::ascii_info
#-mat_getrow_uppertriangular 1
#-st_type sinvert
#-st_ksp_type preonly
#-st_pc_type cholesky
-st_pc_factor_mat_solver_package mumps
#-st_pc_factor_mat_solver_package mkl_pardiso
#SLEPc options
#-eps_view
#-eps_view_values
#-eps_krylovschur_partitions 1
#-eps_krylovschur_nev 120
-eps_interval -2.2,-0.2
#-eps_tol  1.e-8
-eps_krylovschur_detect_zeros 0
#-eps_purify 1
SystemName liquid_D2O_64
SystemLabel D2O_64

UseTreeTimer .true.
DM.MixingWeight 0.3
DM.NumberPulay 3

SolutionMethod  slepc1 #slepc0 for the older method
#SolutionMethod diagon
#BlockSize 23
WriteDM .false.
WriteDM.NetCDF .false.
WriteDMHS.NetCDF .false.
LongOutput .false.
#MaxSCFIterations 2
##################################################
# Do not change below this line                  #
##################################################

%block SuperCell
1 0 0
0 1 0
0 0 1
%endblock SuperCell

NumberOfAtoms 192
NumberOfSpecies 2
#MaxSCFIterations 1

xc.functional GGA
xc.authors PBE 
MeshCutoff 150.0 Ry

%block ChemicalSpeciesLabel
  1   8  O
  2   1  H  
%endblock ChemicalSpeciesLabel

#%block AtomicMass
#  2   2.0
#%endblock AtomicMass

%block PAO.Basis # qz+tp+dp'
O 4
n=2 0 4 E 50.0 8.0
 10.0 5.0 3.5 2.0
n=2 1 4 E 10.0 8.0
 10.0 5.0 3.5 2.0
n=3 2 3 E 40.0 9.0 Q 6.0 0.00
 10.0 2.0 3.0
n=4 3 2 E 50.0 9.0 Q 17.0 0.40
 10.0 1.7
H 3
n=1 0 4 E 50.0 9.0
 10.0 5.0 3.5 2.0
n=2 1 3 E 50.0 9.0 Q 3.5 0.00
 10.0 2.0 4.0
n=3 2 2 E 50.0 9.0 Q 16.0 0.80
 10.0 2.0
%endblock PAO.Basis

LatticeConstant 12.418275010405969 Ang
%block LatticeVectors   
  1.0  0.0  0.0
  0.0  1.0  0.0
  0.0  0.0  1.0
%endblock LatticeVectors   

AtomicCoordinatesFormat NotScaledCartesianAng
%block AtomicCoordinatesAndAtomicSpecies < coord64.data
Siesta Version: siesta-trunk-492
Architecture  : x86_64-unknown-linux-gnu--unknown
Compiler flags: mpif90 -g -O3 -I/home/keceli/lib/petsc/include -I/home/keceli/lib/petsc/arch--gccopt/include -I/home/keceli/lib/slepc/arch-gccopt/include -I/home/keceli/lib/slepc/include -I/soft/mkl/11.1.0.080/mkl/include -I/blues/gpfs/home/software/spack/opt/spack/linux-x86_64/gcc-5.3.0/mpich-3.2-wraqufukmp7yzyl6a644pnmda7wkg7w7/include
PP flags      : -DMPI -DMPI_TIMING -DFC_HAVE_FLUSH -DFC_HAVE_ABORT 
PARALLEL version

* Running on   64 nodes in parallel
>> Start of run:  24-SEP-2016  16:02:11

                           ***********************       
                           *  WELCOME TO SIESTA  *       
                           ***********************       
WARNING: Siesta is reading its input from file INPUT_DEBUG

reinit: -----------------------------------------------------------------------
reinit: System Name: liquid_D2O_64
reinit: -----------------------------------------------------------------------
reinit: System Label: D2O_64                                                      
reinit: -----------------------------------------------------------------------

initatom: Reading input for the pseudopotentials and atomic orbitals ----------
Species number:   1 Atomic number:    8 Label: O
Species number:   2 Atomic number:    1 Label: H

Ground state valence configuration:   2s02  2p04
Reading pseudopotential information in formatted form from O.psf

Valence configuration for pseudopotential generation:
2s( 2.00) rc: 1.14
2p( 4.00) rc: 1.14
3d( 0.00) rc: 1.14
4f( 0.00) rc: 1.14
Ground state valence configuration:   1s01
Reading pseudopotential information in formatted form from H.psf

Valence configuration for pseudopotential generation:
1s( 0.60) rc: 1.25
2p( 0.00) rc: 1.25
3d( 0.00) rc: 1.25
4f( 0.00) rc: 1.25
For O, standard SIESTA heuristics set lmxkb to 4
 (one more than the basis l, including polarization orbitals).
Use PS.lmax or PS.KBprojectors blocks to override.
Warning: For O lmxkb would have been set to 4
Setting it to maximum value of 3 (f projector)
For H, standard SIESTA heuristics set lmxkb to 3
 (one more than the basis l, including polarization orbitals).
Use PS.lmax or PS.KBprojectors blocks to override.

<basis_specs>
===============================================================================
O                    Z=   8    Mass=  16.000        Charge= 0.17977+309
Lmxo=3 Lmxkb= 3    BasisType=split      Semic=F
L=0  Nsemic=0  Cnfigmx=2
          n=1  nzeta=4  polorb=0
            splnorm:   0.15000    
               vcte:    50.000    
               rinn:    8.0000    
               qcoe:    0.0000    
               qyuk:    0.0000    
               qwid:   0.10000E-01
                rcs:    10.000      5.0000      3.5000      2.0000    
            lambdas:    1.0000      1.0000      1.0000      1.0000    
L=1  Nsemic=0  Cnfigmx=2
          n=1  nzeta=4  polorb=0
            splnorm:   0.15000    
               vcte:    10.000    
               rinn:    8.0000    
               qcoe:    0.0000    
               qyuk:    0.0000    
               qwid:   0.10000E-01
                rcs:    10.000      5.0000      3.5000      2.0000    
            lambdas:    1.0000      1.0000      1.0000      1.0000    
L=2  Nsemic=0  Cnfigmx=3
          n=1  nzeta=3  polorb=0
            splnorm:   0.15000    
               vcte:    40.000    
               rinn:    9.0000    
               qcoe:    6.0000    
               qyuk:    0.0000    
               qwid:   0.10000E-01
                rcs:    10.000      2.0000      3.0000    
            lambdas:    1.0000      1.0000      1.0000    
L=3  Nsemic=0  Cnfigmx=4
          n=1  nzeta=2  polorb=0
            splnorm:   0.15000    
               vcte:    50.000    
               rinn:    9.0000    
               qcoe:    17.000    
               qyuk:   0.40000    
               qwid:   0.10000E-01
                rcs:    10.000      1.7000    
            lambdas:    1.0000      1.0000    
-------------------------------------------------------------------------------
L=0  Nkbl=1  erefs: 0.17977+309
L=1  Nkbl=1  erefs: 0.17977+309
L=2  Nkbl=1  erefs: 0.17977+309
L=3  Nkbl=1  erefs: 0.17977+309
===============================================================================
</basis_specs>

atom: Called for O                     (Z =   8)

read_vps: Pseudopotential generation method:
read_vps: ATM3      Troullier-Martins                       
Total valence charge:    6.00000

read_vps: Pseudopotential includes a core correction:
read_vps: Pseudo-core for xc-correction

xc_check: Exchange-correlation functional:
xc_check: GGA Perdew, Burke & Ernzerhof 1996
V l=0 = -2*Zval/r beyond r=  1.1278
V l=1 = -2*Zval/r beyond r=  1.1278
V l=2 = -2*Zval/r beyond r=  1.1278
V l=3 = -2*Zval/r beyond r=  1.1278
All V_l potentials equal beyond r=  1.1278
This should be close to max(r_c) in ps generation
All pots = -2*Zval/r beyond r=  1.1278

VLOCAL1: 99.0% of the norm of Vloc inside     34.126 Ry
VLOCAL1: 99.9% of the norm of Vloc inside     77.774 Ry
atom: Maximum radius for 4*pi*r*r*local-pseudopot. charge    1.37759
atom: Maximum radius for r*vlocal+2*Zval:    1.18566
GHOST: No ghost state for L =  0
GHOST: No ghost state for L =  1
GHOST: No ghost state for L =  2
GHOST: No ghost state for L =  3

KBgen: Kleinman-Bylander projectors: 
   l= 0   rc=  1.262145   el= -1.757696   Ekb=  9.253654   kbcos=  0.328369
   l= 1   rc=  1.262145   el= -0.664256   Ekb= -7.897175   kbcos= -0.393093
   l= 2   rc=  1.343567   el=  0.002031   Ekb= -1.922379   kbcos= -0.003517
   l= 3   rc=  1.394919   el=  0.003153   Ekb= -0.738278   kbcos= -0.000358

KBgen: Total number of  Kleinman-Bylander projectors:   16
atom: -------------------------------------------------------------------------

atom: SANKEY-TYPE ORBITALS:
atom: Selected multiple-zeta basis: split     

SPLIT: Orbitals with angular momentum L= 0

SPLIT: Basis orbitals for state 2s

   izeta = 1
                 lambda =    1.000000
                     rc =   10.181049
                 energy =   -1.757767
                kinetic =    1.546187
    potential(screened) =   -3.303954
       potential(ionic) =  -11.175858

   izeta = 2
                 rmatch =    5.055603
              splitnorm =    0.001043
                 energy =   -1.756217
* WARNING: effective split_norm is quite small. Orbitals will be very similar.
                kinetic =    1.590301
    potential(screened) =   -3.346518
       potential(ionic) =  -11.267994

   izeta = 3
                 rmatch =    3.562532
              splitnorm =    0.023118
                 energy =   -1.724097
* WARNING: effective split_norm is quite small. Orbitals will be very similar.
                kinetic =    1.812689
    potential(screened) =   -3.536786
       potential(ionic) =  -11.661476

   izeta = 4
                 rmatch =    2.004519
              splitnorm =    0.368983
                 energy =   -0.954778
                kinetic =    3.368396
    potential(screened) =   -4.323174
       potential(ionic) =  -13.178438

SPLIT: Orbitals with angular momentum L= 1

SPLIT: Basis orbitals for state 2p

   izeta = 1
                 lambda =    1.000000
                     rc =   10.181049
                 energy =   -0.664314
                kinetic =    4.714332
    potential(screened) =   -5.378647
       potential(ionic) =  -12.967201

   izeta = 2
                 rmatch =    5.055603
              splitnorm =    0.008251
                 energy =   -0.656950
* WARNING: effective split_norm is quite small. Orbitals will be very similar.
                kinetic =    4.990409
    potential(screened) =   -5.647359
       potential(ionic) =  -13.410842

   izeta = 3
                 rmatch =    3.562532
              splitnorm =    0.055493
                 energy =   -0.601809
                kinetic =    5.759592
    potential(screened) =   -6.361401
       potential(ionic) =  -14.486952

   izeta = 4
                 rmatch =    2.004519
              splitnorm =    0.336744
                 energy =    0.137909
                kinetic =    9.626817
    potential(screened) =   -9.488908
       potential(ionic) =  -18.577571

SPLIT: Orbitals with angular momentum L= 2

SPLIT: Basis orbitals for state 3d
Charge confinement: Q:     6.0000

   izeta = 1
                 lambda =    1.000000
                     rc =   10.181049
                 energy =    2.007653
                kinetic =    3.859620
    potential(screened) =   -1.851967
       potential(ionic) =   -7.803212

   izeta = 2
                 rmatch =    2.004519
              splitnorm =    0.637208
                 energy =    6.650039
                kinetic =   11.560126
    potential(screened) =   -4.910087
       potential(ionic) =  -13.161977

   izeta = 3
                 rmatch =    2.990543
              splitnorm =    0.263953
                 energy =    3.559882
                kinetic =    6.528543
    potential(screened) =   -2.968661
       potential(ionic) =  -10.107962

SPLIT: Orbitals with angular momentum L= 3

SPLIT: Basis orbitals for state 4f
Charge confinement: Q:    17.0000

   izeta = 1
                 lambda =    1.000000
                     rc =   10.181049
                 energy =    4.609453
                kinetic =    6.179676
    potential(screened) =   -1.570223
       potential(ionic) =   -7.410991

   izeta = 2
                 rmatch =    1.725262
              splitnorm =    0.752552
                 energy =   15.780374
                kinetic =   20.445907
    potential(screened) =   -4.665533
       potential(ionic) =  -12.986389
atom: Total number of Sankey-type orbitals: 45

atm_pop: Valence configuration (for local Pseudopot. screening):
 2s( 2.00)                                                            
 2p( 4.00)                                                            
 3d( 0.00)                                                            
 4f( 0.00)                                                            
Vna: chval, zval:    6.00000   6.00000

Vna:  Cut-off radius for the neutral-atom potential:  10.181049
comcore: Pseudo-core radius Rcore=  1.377587

atom: _________________________________________________________________________

<basis_specs>
===============================================================================
H                    Z=   1    Mass=  1.0100        Charge= 0.17977+309
Lmxo=2 Lmxkb= 3    BasisType=split      Semic=F
L=0  Nsemic=0  Cnfigmx=1
          n=1  nzeta=4  polorb=0
            splnorm:   0.15000    
               vcte:    50.000    
               rinn:    9.0000    
               qcoe:    0.0000    
               qyuk:    0.0000    
               qwid:   0.10000E-01
                rcs:    10.000      5.0000      3.5000      2.0000    
            lambdas:    1.0000      1.0000      1.0000      1.0000    
L=1  Nsemic=0  Cnfigmx=2
          n=1  nzeta=3  polorb=0
            splnorm:   0.15000    
               vcte:    50.000    
               rinn:    9.0000    
               qcoe:    3.5000    
               qyuk:    0.0000    
               qwid:   0.10000E-01
                rcs:    10.000      2.0000      4.0000    
            lambdas:    1.0000      1.0000      1.0000    
L=2  Nsemic=0  Cnfigmx=3
          n=1  nzeta=2  polorb=0
            splnorm:   0.15000    
               vcte:    50.000    
               rinn:    9.0000    
               qcoe:    16.000    
               qyuk:   0.80000    
               qwid:   0.10000E-01
                rcs:    10.000      2.0000    
            lambdas:    1.0000      1.0000    
-------------------------------------------------------------------------------
L=0  Nkbl=1  erefs: 0.17977+309
L=1  Nkbl=1  erefs: 0.17977+309
L=2  Nkbl=1  erefs: 0.17977+309
L=3  Nkbl=1  erefs: 0.17977+309
===============================================================================
</basis_specs>

atom: Called for H                     (Z =   1)

read_vps: Pseudopotential generation method:
read_vps: ATM 3.2.2 Troullier-Martins                       
Total valence charge:    0.60000

atom: Pseudopotential generated from an ionic configuration
atom: with net charge 0.40

xc_check: Exchange-correlation functional:
xc_check: GGA Perdew, Burke & Ernzerhof 1996
xc_check: WARNING: Pseudopotential generated with GGA revPBE functional
V l=0 = -2*Zval/r beyond r=  1.2343
V l=1 = -2*Zval/r beyond r=  1.2189
V l=2 = -2*Zval/r beyond r=  1.2189
V l=3 = -2*Zval/r beyond r=  1.2038
All V_l potentials equal beyond r=  1.2343
This should be close to max(r_c) in ps generation
All pots = -2*Zval/r beyond r=  1.2343

VLOCAL1: 99.0% of the norm of Vloc inside     28.493 Ry
VLOCAL1: 99.9% of the norm of Vloc inside     64.935 Ry
atom: Maximum radius for 4*pi*r*r*local-pseudopot. charge    1.45251
atom: Maximum radius for r*vlocal+2*Zval:    1.21892
GHOST: No ghost state for L =  0
GHOST: No ghost state for L =  1
GHOST: No ghost state for L =  2
GHOST: No ghost state for L =  3

KBgen: Kleinman-Bylander projectors: 
   l= 0   rc=  1.364359   el= -0.835481   Ekb= -2.050473   kbcos= -0.374935
   l= 1   rc=  1.434438   el= -0.083696   Ekb= -0.439790   kbcos= -0.040392
   l= 2   rc=  1.470814   el= -0.018512   Ekb= -0.135383   kbcos= -0.004767
   l= 3   rc=  1.508111   el= -0.010355   Ekb= -0.058408   kbcos= -0.000784

KBgen: Total number of  Kleinman-Bylander projectors:   16
atom: -------------------------------------------------------------------------

atom: SANKEY-TYPE ORBITALS:
atom: Selected multiple-zeta basis: split     

atom: basis set generated from the ionic configuration used
atom: to generate the pseudopotential

SPLIT: Orbitals with angular momentum L= 0

SPLIT: Basis orbitals for state 1s

   izeta = 1
                 lambda =    1.000000
                     rc =    9.971704
                 energy =   -0.835496
                kinetic =    1.039073
    potential(screened) =   -1.874569
       potential(ionic) =   -2.037700

   izeta = 2
                 rmatch =    5.075940
              splitnorm =    0.029735
                 energy =   -0.816789
* WARNING: effective split_norm is quite small. Orbitals will be very similar.
                kinetic =    1.252128
    potential(screened) =   -2.068916
       potential(ionic) =   -2.226196

   izeta = 3
                 rmatch =    3.487864
              splitnorm =    0.176430
                 energy =   -0.691872
                kinetic =    1.782572
    potential(screened) =   -2.474444
       potential(ionic) =   -2.615176

   izeta = 4
                 rmatch =    2.011274
              splitnorm =    0.598000
                 energy =    0.301433
                kinetic =    3.884637
    potential(screened) =   -3.583203
       potential(ionic) =   -3.672637

SPLIT: Orbitals with angular momentum L= 1

SPLIT: Basis orbitals for state 2p
Charge confinement: Q:     3.5000

   izeta = 1
                 lambda =    1.000000
                     rc =    9.971704
                 energy =    0.711778
                kinetic =    1.888566
    potential(screened) =   -1.176788
       potential(ionic) =   -1.368090

   izeta = 2
                 rmatch =    2.011274
              splitnorm =    0.691729
                 energy =    4.504307
                kinetic =    6.792143
    potential(screened) =   -2.287836
       potential(ionic) =   -2.425880

   izeta = 3
                 rmatch =    4.052721
              splitnorm =    0.089367
                 energy =    1.150580
                kinetic =    2.529067
    potential(screened) =   -1.378487
       potential(ionic) =   -1.566684

SPLIT: Orbitals with angular momentum L= 2

SPLIT: Basis orbitals for state 3d
Charge confinement: Q:    16.0000

   izeta = 1
                 lambda =    1.000000
                     rc =    9.971704
                 energy =    3.555650
                kinetic =    4.803510
    potential(screened) =   -1.247860
       potential(ionic) =   -1.438034

   izeta = 2
                 rmatch =    2.011274
              splitnorm =    0.525433
                 energy =    9.861824
                kinetic =   11.896576
    potential(screened) =   -2.034751
       potential(ionic) =   -2.186933
atom: Total number of Sankey-type orbitals: 23

atm_pop: Valence configuration (for local Pseudopot. screening):
 1s( 1.00)                                                            
 2p( 0.00)                                                            
 3d( 0.00)                                                            
Vna: chval, zval:    1.00000   1.00000

Vna:  Cut-off radius for the neutral-atom potential:   9.971704

atom: _________________________________________________________________________

prinput: Basis input ----------------------------------------------------------

PAO.BasisType split     

%block ChemicalSpeciesLabel
    1    8 O                       # Species index, atomic number, species label
    2    1 H                       # Species index, atomic number, species label
%endblock ChemicalSpeciesLabel

%block PAO.Basis                 # Define Basis set
O                     4                    # Species label, number of l-shells
 n=2   0   4                         # n, l, Nzeta 
  10.181      5.056      3.563      2.005   
   1.000      1.000      1.000      1.000   
 n=2   1   4                         # n, l, Nzeta 
  10.181      5.056      3.563      2.005   
   1.000      1.000      1.000      1.000   
 n=3   2   3                         # n, l, Nzeta 
  10.181      2.005      2.991   
   1.000      1.000      1.000   
 n=4   3   2                         # n, l, Nzeta 
  10.181      1.725   
   1.000      1.000   
H                     3   0.400            # Label, l-shells, ionic net charge
 n=1   0   4                         # n, l, Nzeta 
   9.972      5.076      3.488      2.011   
   1.000      1.000      1.000      1.000   
 n=2   1   3                         # n, l, Nzeta 
   9.972      2.011      4.053   
   1.000      1.000      1.000   
 n=3   2   2                         # n, l, Nzeta 
   9.972      2.011   
   1.000      1.000   
%endblock PAO.Basis

prinput: ----------------------------------------------------------------------

coor:   Atomic-coordinates input format  =     Cartesian coordinates
coor:                                          (in Angstroms)

siesta: Atomic coordinates (Bohr) and species
siesta:      1.17163  22.71452   5.02667  1        1
siesta:      0.86927  23.39482   6.67074  2        2
siesta:      2.04091  24.03733   4.13850  2        3
siesta:     17.83902  10.69585   0.22677  1        4
siesta:     18.93506  11.77300   1.15273  2        5
siesta:     17.46108  11.62182  -1.28501  2        6
siesta:     17.27210   2.15429  11.82969  1        7
siesta:     18.00910   0.81258  12.77455  2        8
siesta:     15.51466   2.05980  12.18874  2        9
siesta:     18.29256  18.36815  10.43129  1       10
siesta:     17.63115  17.68784   8.90061  2       11
siesta:     17.00754  17.99020  11.67851  2       12
siesta:      4.66763   5.70698   6.59515  1       13
siesta:      5.08337   5.80146   4.83770  2       14
siesta:      2.87238   5.80146   6.65184  2       15
siesta:     20.65471   8.63605  15.42017  1       16
siesta:     19.29411   7.54001  15.89260  2       17
siesta:     21.14604   8.08803  13.77611  2       18
siesta:     15.85481   6.33059   6.97309  1       19
siesta:     16.59180   7.78567   6.21720  2       20
siesta:     17.08313   5.02667   6.70853  2       21
siesta:     10.33681  13.36037   4.87550  1       22
siesta:     11.22498  11.94307   4.17630  2       23
siesta:      8.59826  12.94463   4.66763  2       24
siesta:      1.71965   9.69430  20.78700  1       25
siesta:      1.54958   9.01400  19.12404  2       26
siesta:      2.83459  11.11159  20.57913  2       27
siesta:      5.27234  13.66273  18.80278  1       28
siesta:      6.25500  13.17140  17.36659  2       29
siesta:      3.81725  14.49421  18.08469  2       30
siesta:      9.03289  23.11136   1.17163  1       31
siesta:      9.42974  24.56645   2.17319  2       32
siesta:      9.41084  21.69406   2.24877  2       33
siesta:     15.91150   6.06602  15.85481  1       34
siesta:     14.79656   7.38883  15.30679  2       35
siesta:     16.04378   4.96998  14.41862  2       36
siesta:     22.97908  15.21230  11.81079  1       37
siesta:     21.18384  15.32568  11.60292  2       38
siesta:     23.54600  14.17295  10.45019  2       39
siesta:      6.74632   7.59670   0.83148  1       40
siesta:      8.22031   6.68963   0.35905  2       41
siesta:      5.63139   7.44552  -0.60471  2       42
siesta:     11.39505  11.03600  19.01065  1       43
siesta:     12.83125  10.80924  20.06890  2       44
siesta:     12.01866  10.80924  17.32880  2       45
siesta:     13.22809  13.88949   9.37305  1       46
siesta:     11.92418  13.85170   8.12583  2       47
siesta:     12.85014  15.34458  10.39350  2       48
siesta:      1.02045   0.30236  10.28011  1       49
siesta:      1.79524   1.64406  11.18718  2       50
siesta:      1.73855  -1.19053  10.97931  2       51
siesta:      7.35104  21.59958   8.78723  1       52
siesta:      6.19830  20.73030   9.88327  2       53
siesta:      8.86282  20.61692   8.84392  2       54
siesta:     11.84859  23.05467  14.53200  1       55
siesta:     13.03912  22.41216  15.74142  2       56
siesta:     10.37460  23.45151  15.51466  2       57
siesta:      3.30702   4.36527  12.43440  1       58
siesta:      2.83459   5.68808  13.58714  2       59
siesta:      3.91173   5.23454  10.97931  2       60
siesta:     11.56513  19.02955  10.11004  1       61
siesta:     11.73520  20.23897  11.45174  2       62
siesta:     12.77455  19.55867   8.88172  2       63
siesta:     15.53355   2.39995  21.37281  1       64
siesta:     14.47531   0.98266  20.95707  2       65
siesta:     15.87371   3.21254  19.80434  2       66
siesta:      1.71965  13.64383   7.25655  1       67
siesta:      2.43775  15.30679   7.12427  2       68
siesta:      2.77790  12.62338   6.21720  2       69
siesta:      7.02978  16.21386  12.03756  1       70
siesta:      8.57936  17.02644  11.62182  2       71
siesta:      5.78256  17.51777  11.96197  2       72
siesta:     10.14783  18.65160   3.60938  1       73
siesta:     11.77300  19.33191   4.04402  2       74
siesta:     10.20453  16.95085   4.23299  2       75
siesta:      3.34482  19.97441  20.50354  1       76
siesta:      2.36216  18.76499  19.57757  2       77
siesta:      4.81880  19.04845  21.03266  2       78
siesta:     12.20764  22.18539  20.93817  1       79
siesta:     11.48954  20.73030  20.14449  2       80
siesta:     10.96042  22.69562  22.16650  2       81
siesta:     21.27832  15.30679  20.46574  1       82
siesta:     21.90193  14.75877  22.07201  2       83
siesta:     21.44840  17.12093  20.50354  2       84
siesta:     11.22498  18.31145  17.59336  1       85
siesta:      9.82658  19.12404  16.79967  2       86
siesta:     10.48798  17.30990  18.91617  2       87
siesta:     12.07535   2.68341   4.40306  1       88
siesta:     13.34147   3.77945   5.10226  2       89
siesta:     10.71475   2.72121   5.59359  2       90
siesta:     21.63737   6.93530   0.75589  1       91
siesta:     22.54444   8.06913  -0.32125  2       92
siesta:     19.93662   7.52111   0.71810  2       93
siesta:     22.54444   5.93374   5.97154  1       94
siesta:     22.67672   6.59515   4.28968  2       95
siesta:     22.07201   4.19519   5.74477  2       96
siesta:     18.97286   0.73699   1.11494  1       97
siesta:     17.61225   1.36060   0.09449  2       98
siesta:     19.80434   2.22988   1.71965  2       99
siesta:     19.31301  20.48464   5.19675  1      100
siesta:     21.07045  20.71141   5.55580  2      101
siesta:     19.10514  21.16494   3.53379  2      102
siesta:     20.23897  14.58869   2.26767  1      103
siesta:     19.82323  13.92729   3.89284  2      104
siesta:     19.67206  16.30834   2.34326  2      105
siesta:      8.63605   3.25033   8.52267  1      106
siesta:      8.27700   1.49288   8.74944  2      107
siesta:      7.10537   3.94953   7.89906  2      108
siesta:     22.33657  19.67206   0.24566  1      109
siesta:     21.52399  21.20274  -0.32125  2      110
siesta:     24.03733  20.16339   0.60471  2      111
siesta:     16.79967  19.69095  21.88304  1      112
siesta:     15.08002  20.18228  21.97752  2      113
siesta:     16.81857  17.95241  22.37437  2      114
siesta:      6.17941  20.59802  16.13827  1      115
siesta:      6.46287  22.27988  15.53355  2      116
siesta:      5.40462  20.82479  17.76343  2      117
siesta:      3.06136  15.70363   0.58582  1      118
siesta:      2.05980  17.00754  -0.18897  2      119
siesta:      3.64717  16.45952   2.13539  2      120
siesta:     22.56334   3.06136  21.22163  1      121
siesta:     22.26098   4.61093  22.07201  2      122
siesta:     20.91928   2.36216  20.93817  2      123
siesta:      3.06136   2.32436   1.22832  1      124
siesta:      2.09760   1.98421  -0.26456  2      125
siesta:      4.78101   2.15429   0.73699  2      126
siesta:      5.57469  11.88638   3.38261  1      127
siesta:      5.66918  10.26122   2.60782  2      128
siesta:      4.85660  12.94463   2.11649  2      129
siesta:     14.28634  20.80589   5.36682  1      130
siesta:     16.06268  21.03266   5.17785  2      131
siesta:     13.58714  22.46885   5.19675  2      132
siesta:     13.60603  15.93040   1.00156  1      133
siesta:     13.41706  14.17295   1.32281  2      134
siesta:     12.03756  16.66739   1.51178  2      135
siesta:     17.30990  11.77300  18.23586  1      136
siesta:     18.27366  10.75255  17.08313  2      137
siesta:     18.23586  13.32257  18.34925  2      138
siesta:     12.20764   5.55580  11.03600  1      139
siesta:     13.37927   5.85815   9.67540  2      140
siesta:     10.77144   4.78101  10.22342  2      141
siesta:      8.74944  16.34614  21.44840  1      142
siesta:      7.38883  15.25010  20.95707  2      143
siesta:     10.11004  15.23120  21.82635  2      144
siesta:     16.59180  21.63737  17.08313  1      145
siesta:     16.96975  20.74920  18.59491  2      146
siesta:     18.19807  21.82635  16.25165  2      147
siesta:     20.16339  21.80745  13.58714  1      148
siesta:     21.48619  22.37437  12.49109  2      149
siesta:     19.29411  20.54133  12.62338  2      150
siesta:     15.32568  17.53667  14.53200  1      151
siesta:     14.38082  16.66739  15.79812  2      152
siesta:     15.89260  19.04845  15.34458  2      153
siesta:     17.72564  12.41551   7.33214  1      154
siesta:     16.25165  12.94463   8.25811  2      155
siesta:     18.80278  11.65961   8.56046  2      156
siesta:      7.57780   2.68341  14.73987  1      157
siesta:      8.88172   3.53379  13.81390  2      158
siesta:      6.02823   3.23143  13.96508  2      159
siesta:     19.25632   1.88973   7.14317  1      160
siesta:     18.63271   1.96532   8.84392  2      161
siesta:     19.33191   0.13228   6.76522  2      162
siesta:     22.03422   9.05179  10.01555  1      163
siesta:     22.05311   7.65339   8.86282  2      164
siesta:     23.58379   9.92107   9.67540  2      165
siesta:      6.91640  10.99821  14.11626  1      166
siesta:      6.33059  12.32102  13.02022  2      167
siesta:      8.73054  11.07380  13.96508  2      168
siesta:     11.35726   5.08337  22.73341  1      169
siesta:     12.83125   4.10071  22.35547  2      170
siesta:     10.58247   5.36682  21.12715  2      171
siesta:     12.26433   9.92107  13.94618  1      172
siesta:     11.96197   8.63605  12.71786  2      173
siesta:     12.96353  11.30057  13.00132  2      174
siesta:     12.98242  10.03445   1.77634  1      175
siesta:     12.58558   8.33370   1.30391  2      176
siesta:     14.75877  10.18563   1.49288  2      177
siesta:      8.37149   6.36838  18.97286  1      178
siesta:      8.44708   5.31013  17.49887  2      179
siesta:      9.25966   7.88016  18.48153  2      180
siesta:      2.83459  19.25632  12.32102  1      181
siesta:      1.75745  17.83902  11.98087  2      182
siesta:      3.13695  19.19963  14.09736  2      183
siesta:      2.66451   8.14472  15.70363  1      184
siesta:      4.42196   8.61715  15.68473  2      185
siesta:      1.77634   9.73209  15.68473  2      186
siesta:      0.96376  16.06268  16.61070  1      187
siesta:     -0.41574  15.77922  17.74454  2      188
siesta:      0.26456  15.72253  14.96664  2      189
siesta:      4.23299  18.48153   5.36682  1      190
siesta:      5.89595  19.08624   4.96998  2      191
siesta:      3.15584  19.91772   5.15895  2      192

siesta: System type = bulk      

initatomlists: Number of atoms, orbitals, and projectors:    192  5824  3072

siesta: ******************** Simulation parameters ****************************
siesta:
siesta: The following are some of the parameters of the simulation.
siesta: A complete list of the parameters used, including default values,
siesta: can be found in file out.fdf
siesta:
redata: Non-Collinear-spin run           =     F
redata: SpinPolarized (Up/Down) run      =     F
redata: Number of spin components        =     1
redata: Long output                      =     F
redata: Number of Atomic Species         =        2
redata: Charge density info will appear in .RHO file
redata: Write Mulliken Pop.              =     NO
redata: Mesh Cutoff                      =   150.0000  Ry
redata: Net charge of the system         =     0.0000 |e|
redata: Min. number of SCF Iter          =        0
redata: Max. number of SCF Iter          =       50
redata: Mix DM or H after convergence    =     F
redata: Recompute H after scf cycle      =     F
redata: Performing Pulay mixing using    =     3 iterations
redata: Mix DM in first SCF step ?       =     F
redata: Write Pulay info on disk?        =     F
redata: Discard 1st Pulay DM after  kick =     F
redata: New DM Mixing Weight             =     0.3000
redata: New DM Occupancy tolerance       = 0.000000000001
redata: No kicks to SCF
redata: DM Mixing Weight for Kicks       =     0.5000
redata: DM Tolerance for SCF             =     0.000100
redata: Require (free) Energy convergence in SCF =     F
redata: DM (free)Energy tolerance for SCF =     0.000010 eV
redata: Require Harris convergence for SCF =     F
redata: DM Harris energy tolerance for SCF =     0.000010 eV
redata: Using Saved Data (generic)   =     F
redata: Use continuation files for DM    =     F
redata: Neglect nonoverlap interactions  =     F
redata: Method of Calculation            =     old SLEPc
redata: Fix the spin of the system       =     F
redata: Dynamics option                  =     Single-point calculation
redata: ***********************************************************************
Total number of electrons:   512.000000
Total ionic charge:   512.000000

* ProcessorY, Blocksize:    8  91


* Orbital distribution balance (max,min):    91    91

 Kpoints in:            1 . Kpoints trimmed:            1

siesta: k-grid: Number of k-points =     1
siesta: k-grid: Cutoff (effective) =     6.209 Ang
siesta: k-grid: Supercell and displacements
siesta: k-grid:    1   0   0      0.000
siesta: k-grid:    0   1   0      0.000
siesta: k-grid:    0   0   1      0.000

                     ====================================
                        Single-point calculation
                     ====================================

outcell: Unit cell vectors (Ang):
       12.418275    0.000000    0.000000
        0.000000   12.418275    0.000000
        0.000000    0.000000   12.418275

outcell: Cell vector modules (Ang)   :   12.418275   12.418275   12.418275
outcell: Cell angles (23,13,12) (deg):     90.0000     90.0000     90.0000
outcell: Cell volume (Ang**3)        :   1915.0663
 Folding of H and S is implicitly performed
New_DM. Step:     1
Initializing Density Matrix...
New grid distribution:   1
           1       1:   48    1:    6    1:    6
           2       1:   48    1:    6    7:   12
           3       1:   48    1:    6   13:   18
           4       1:   48    1:    6   19:   24
           5       1:   48    1:    6   25:   30
           6       1:   48    1:    6   31:   36
           7       1:   48    1:    6   37:   42
           8       1:   48    1:    6   43:   48
           9       1:   48    7:   12    1:    6
          10       1:   48    7:   12    7:   12
          11       1:   48    7:   12   13:   18
          12       1:   48    7:   12   19:   24
          13       1:   48    7:   12   25:   30
          14       1:   48    7:   12   31:   36
          15       1:   48    7:   12   37:   42
          16       1:   48    7:   12   43:   48
          17       1:   48   13:   18    1:    6
          18       1:   48   13:   18    7:   12
          19       1:   48   13:   18   13:   18
          20       1:   48   13:   18   19:   24
          21       1:   48   13:   18   25:   30
          22       1:   48   13:   18   31:   36
          23       1:   48   13:   18   37:   42
          24       1:   48   13:   18   43:   48
          25       1:   48   19:   24    1:    6
          26       1:   48   19:   24    7:   12
          27       1:   48   19:   24   13:   18
          28       1:   48   19:   24   19:   24
          29       1:   48   19:   24   25:   30
          30       1:   48   19:   24   31:   36
          31       1:   48   19:   24   37:   42
          32       1:   48   19:   24   43:   48
          33       1:   48   25:   30    1:    6
          34       1:   48   25:   30    7:   12
          35       1:   48   25:   30   13:   18
          36       1:   48   25:   30   19:   24
          37       1:   48   25:   30   25:   30
          38       1:   48   25:   30   31:   36
          39       1:   48   25:   30   37:   42
          40       1:   48   25:   30   43:   48
          41       1:   48   31:   36    1:    6
          42       1:   48   31:   36    7:   12
          43       1:   48   31:   36   13:   18
          44       1:   48   31:   36   19:   24
          45       1:   48   31:   36   25:   30
          46       1:   48   31:   36   31:   36
          47       1:   48   31:   36   37:   42
          48       1:   48   31:   36   43:   48
          49       1:   48   37:   42    1:    6
          50       1:   48   37:   42    7:   12
          51       1:   48   37:   42   13:   18
          52       1:   48   37:   42   19:   24
          53       1:   48   37:   42   25:   30
          54       1:   48   37:   42   31:   36
          55       1:   48   37:   42   37:   42
          56       1:   48   37:   42   43:   48
          57       1:   48   43:   48    1:    6
          58       1:   48   43:   48    7:   12
          59       1:   48   43:   48   13:   18
          60       1:   48   43:   48   19:   24
          61       1:   48   43:   48   25:   30
          62       1:   48   43:   48   31:   36
          63       1:   48   43:   48   37:   42
          64       1:   48   43:   48   43:   48

InitMesh: MESH =    96 x    96 x    96 =      884736
InitMesh: (bp) =    48 x    48 x    48 =      110592
InitMesh: Mesh cutoff (required, used) =   150.000   165.166 Ry
ExtMesh (bp) on 0 =   132 x    90 x    90 =     1069200
New grid distribution:   2
           1      37:   48   13:   25   13:   24
           2      25:   36   26:   37   37:   48
           3      25:   36    1:   12    1:   12
           4      25:   35    1:   12   25:   36
           5       1:   12   26:   37   25:   36
           6      13:   24    1:   12    1:   12
           7       1:   13    1:   13   37:   48
           8      14:   24    1:   13   37:   48
           9      13:   24   13:   25    1:   12
          10      13:   24   14:   25   37:   48
          11      25:   36    1:   12   13:   24
          12      25:   36   38:   48    1:   12
          13      13:   24   26:   37   25:   36
          14      37:   48    1:   12    1:   12
          15      36:   48    1:   12   37:   48
          16      37:   48   38:   48    1:   12
          17      37:   48   13:   25    1:   12
          18       1:   12    1:   12    1:   12
          19       1:   12   13:   25   13:   24
          20      14:   24    1:   12   25:   36
          21       1:   12   13:   25   25:   36
          22      37:   48    1:   12   13:   24
          23      36:   48   13:   25   37:   48
          24       1:   12   38:   48    1:   12
          25      25:   36   13:   25    1:   12
          26       1:   12   26:   37   13:   24
          27      37:   48   26:   37    1:   12
          28      25:   35    1:   12   37:   48
          29      13:   24   13:   25   25:   36
          30      13:   24   38:   48    1:   12
          31       1:   12   14:   25   37:   48
          32      25:   35   13:   25   37:   48
          33       1:   12   26:   37    1:   12
          34      14:   24   38:   48   25:   36
          35      25:   36   13:   25   13:   24
          36      37:   48   26:   37   13:   24
          37      37:   48   13:   25   25:   36
          38      25:   36   26:   37   25:   36
          39      36:   48   38:   48   37:   48
          40      25:   35   38:   48   25:   36
          41       1:   12   13:   25    1:   12
          42      13:   24   26:   37    1:   12
          43      25:   36   26:   37   13:   24
          44      25:   35   38:   48   13:   24
          45       1:   13    1:   12   25:   36
          46      37:   48   26:   37   25:   36
          47       1:   13   26:   36   37:   48
          48      14:   24   26:   36   37:   48
          49      25:   36   13:   25   25:   36
          50      25:   36   26:   37    1:   12
          51      13:   24   26:   37   13:   24
          52      13:   24   38:   48   13:   24
          53      36:   48    1:   12   25:   36
          54      36:   48   38:   48   25:   36
          55      37:   48   26:   37   37:   48
          56      14:   24   37:   48   37:   48
          57      13:   24   13:   25   13:   24
          58       1:   12    1:   12   13:   24
          59      36:   48   38:   48   13:   24
          60       1:   12   38:   48   13:   24
          61      13:   24    1:   12   13:   24
          62       1:   13   38:   48   25:   36
          63       1:   13   37:   48   37:   48
          64      25:   35   38:   48   37:   48
New grid distribution:   3
           1      25:   36   13:   24   37:   48
           2      25:   36   37:   48   37:   48
           3      25:   36   13:   24    1:   12
           4      25:   36   37:   48    1:   12
           5      25:   36    1:   12   25:   36
           6      37:   48   37:   48   37:   48
           7      37:   48   13:   24    1:   12
           8      37:   48   37:   48    1:   12
           9      37:   48   13:   24   37:   48
          10      25:   36   25:   36   37:   48
          11      25:   36    1:   12    1:   12
          12      25:   36   25:   36    1:   12
          13      37:   48    1:   12   25:   36
          14      37:   48   25:   36   37:   48
          15      37:   48    1:   12    1:   12
          16      37:   48   25:   36    1:   12
          17      25:   36    1:   12   37:   48
          18       1:   12   37:   48   25:   36
          19      25:   36   13:   24   13:   24
          20       1:   12   37:   48    1:   12
          21      25:   36   13:   24   25:   36
          22      13:   24   37:   48   25:   36
          23      25:   36    1:   12   13:   24
          24      13:   24   37:   48    1:   12
          25      37:   48    1:   12   37:   48
          26       1:   12   25:   36   25:   36
          27      37:   48   13:   24   13:   24
          28       1:   12   25:   36    1:   12
          29      37:   48   13:   24   25:   36
          30      13:   24   25:   36   25:   36
          31      37:   48    1:   12   13:   24
          32      13:   24   25:   36    1:   12
          33       1:   12   13:   24   25:   36
          34       1:   12   37:   48   37:   48
          35       1:   12   13:   24    1:   12
          36      25:   36   25:   36   13:   24
          37      13:   24   13:   24   25:   36
          38      25:   36   25:   36   25:   36
          39      13:   24   13:   24    1:   12
          40       1:   12   37:   48   13:   24
          41       1:   12    1:   12   25:   36
          42      13:   24   37:   48   37:   48
          43       1:   12    1:   12    1:   12
          44      37:   48   25:   36   13:   24
          45      13:   24    1:   12   25:   36
          46      37:   48   25:   36   25:   36
          47      13:   24    1:   12    1:   12
          48      13:   24   37:   48   13:   24
          49       1:   12   13:   24   37:   48
          50       1:   12   25:   36   37:   48
          51       1:   12   13:   24   13:   24
          52      25:   36   37:   48   13:   24
          53      13:   24   13:   24   37:   48
          54      25:   36   37:   48   25:   36
          55      13:   24   13:   24   13:   24
          56       1:   12   25:   36   13:   24
          57       1:   12    1:   12   37:   48
          58      13:   24   25:   36   37:   48
          59       1:   12    1:   12   13:   24
          60      37:   48   37:   48   13:   24
          61      13:   24    1:   12   37:   48
          62      37:   48   37:   48   25:   36
          63      13:   24    1:   12   13:   24
          64      13:   24   25:   36   13:   24
Setting up quadratic distribution...
ExtMesh (bp) on 0 =    96 x    97 x    96 =      893952
PhiOnMesh: Number of (b)points on node 0 =                 1872
PhiOnMesh: nlist on node 0 =              1423067
 QETSC: Update                =1609221156
QETSC: Number of ranks       =          64
QETSC: Number of slices      =          32
QETSC: Number of ranks/slice =           2
QETSC: Number of evals/slice =   8.00
QETSC: Number of req. evals  =         256
QETSC: Number of rows (all)  =        5824
QETSC: Number of rows (max)  =          91
QETSC: Number of rows (min)  =          91
QETSC: Number of nonzeros    =    17387592
QETSC: Nonzero % (all)       =  51.26
QETSC: Nonzero % (max)       =  53.33
QETSC: Nonzero % (min)       =  48.88
QETSC: Global evecs          =      T
QETSC: Bin type given        =           2
QETSC: Bin buffer            =   0.10
QETSC: Diff thresh           =   0.01
QETSC: Infinity type         =           2
QETSC: Inertia type          =           1
 QETSC: Estimated eigenvalues         =
-2.2000000000000002E+00
-2.1986559139784947E+00
-2.1973118279569892E+00
-2.1959677419354842E+00
-2.1946236559139787E+00
-2.1932795698924732E+00
-2.1919354838709681E+00
-2.1905913978494627E+00
-2.1892473118279572E+00
-2.1879032258064517E+00
-2.1865591397849462E+00
-2.1852150537634412E+00
-2.1838709677419357E+00
-2.1825268817204302E+00
-2.1811827956989251E+00
-2.1798387096774197E+00
-2.1784946236559142E+00
-2.1771505376344087E+00
-2.1758064516129032E+00
-2.1744623655913982E+00
-2.1731182795698927E+00
-2.1717741935483872E+00
-2.1704301075268821E+00
-2.1690860215053767E+00
-2.1677419354838712E+00
-2.1663978494623657E+00
-2.1650537634408602E+00
-2.1637096774193552E+00
-2.1623655913978497E+00
-2.1610215053763442E+00
-2.1596774193548391E+00
-2.1583333333333337E+00
-2.1569892473118282E+00
-2.1556451612903227E+00
-2.1543010752688172E+00
-2.1529569892473122E+00
-2.1516129032258067E+00
-2.1502688172043012E+00
-2.1489247311827961E+00
-2.1475806451612907E+00
-2.1462365591397852E+00
-2.1448924731182797E+00
-2.1435483870967742E+00
-2.1422043010752692E+00
-2.1408602150537637E+00
-2.1395161290322582E+00
-2.1381720430107531E+00
-2.1368279569892477E+00
-2.1354838709677422E+00
-2.1314516129032262E+00
-2.1274193548387101E+00
-2.1233870967741937E+00
-2.1193548387096777E+00
-2.1153225806451617E+00
-2.1112903225806452E+00
-2.1072580645161292E+00
-2.1032258064516132E+00
-2.0991935483870972E+00
-2.0951612903225811E+00
-2.0911290322580647E+00
-2.0870967741935487E+00
-2.0830645161290327E+00
-2.0790322580645162E+00
-2.0750000000000002E+00
-1.2967741935483872E+00
-1.2938416422287391E+00
-1.2909090909090910E+00
-1.2879765395894429E+00
-1.2850439882697948E+00
-1.2821114369501467E+00
-1.2791788856304986E+00
-1.2762463343108505E+00
-1.2733137829912025E+00
-1.2703812316715544E+00
-1.2674486803519063E+00
-1.2645161290322582E+00
-1.2615835777126101E+00
-1.2586510263929620E+00
-1.2557184750733139E+00
-1.2527859237536658E+00
-1.2498533724340177E+00
-1.2469208211143696E+00
-1.2439882697947215E+00
-1.2410557184750735E+00
-1.2381231671554254E+00
-1.2351906158357773E+00
-1.2322580645161292E+00
-1.2307219662058373E+00
-1.2291858678955454E+00
-1.2276497695852535E+00
-1.2261136712749618E+00
-1.2245775729646700E+00
-1.2230414746543781E+00
-1.2215053763440862E+00
-1.2199692780337943E+00
-1.2184331797235024E+00
-1.2168970814132105E+00
-1.2153609831029188E+00
-1.2138248847926270E+00
-1.2122887864823351E+00
-1.2107526881720432E+00
-1.2092165898617513E+00
-1.2076804915514594E+00
-1.2061443932411675E+00
-1.2046082949308758E+00
-1.2030721966205840E+00
-1.2015360983102921E+00
-1.2000000000000002E+00
-1.1984639016897083E+00
-1.1969278033794164E+00
-1.1953917050691245E+00
-1.1938556067588328E+00
-1.1923195084485410E+00
-1.1907834101382491E+00
-1.1892473118279572E+00
-1.1877112135176653E+00
-1.1861751152073734E+00
-1.1846390168970815E+00
-1.1831029185867898E+00
-1.1815668202764980E+00
-1.1800307219662061E+00
-1.1784946236559142E+00
-1.1769585253456223E+00
-1.1754224270353304E+00
-1.1738863287250385E+00
-1.1723502304147468E+00
-1.1708141321044550E+00
-1.1692780337941631E+00
-1.1032258064516132E+00
-1.0951612903225809E+00
-1.0870967741935487E+00
-1.0790322580645164E+00
-1.0709677419354842E+00
-1.0629032258064519E+00
-1.0548387096774197E+00
-1.0467741935483874E+00
-1.0387096774193552E+00
-1.0368663594470049E+00
-1.0350230414746546E+00
-1.0331797235023044E+00
-1.0313364055299543E+00
-1.0294930875576040E+00
-1.0276497695852538E+00
-1.0258064516129035E+00
-1.0239631336405532E+00
-1.0221198156682030E+00
-1.0202764976958527E+00
-1.0184331797235027E+00
-1.0165898617511524E+00
-1.0147465437788021E+00
-1.0129032258064519E+00
-1.0110599078341016E+00
-1.0092165898617513E+00
-1.0073732718894011E+00
-1.0055299539170510E+00
-1.0036866359447008E+00
-1.0018433179723505E+00
-1.0000000000000002E+00
-9.9815668202764996E-01
-9.9631336405529980E-01
-9.9447004608294953E-01
-9.9262672811059927E-01
-9.9078341013824900E-01
-9.8894009216589884E-01
-9.8709677419354858E-01
-9.8525345622119831E-01
-9.8341013824884815E-01
-9.8156682027649789E-01
-9.7972350230414762E-01
-9.7788018433179735E-01
-9.7603686635944720E-01
-9.7419354838709693E-01
-9.7112135176651326E-01
-9.6804915514592949E-01
-9.6497695852534582E-01
-9.6190476190476204E-01
-9.5883256528417837E-01
-9.5576036866359459E-01
-9.5268817204301093E-01
-9.4961597542242726E-01
-9.4654377880184348E-01
-9.4347158218125982E-01
-9.4039938556067604E-01
-9.3732718894009237E-01
-9.3425499231950859E-01
-9.3118279569892493E-01
-9.2811059907834126E-01
-9.2503840245775748E-01
-9.2196620583717381E-01
-9.1889400921659004E-01
-9.1582181259600637E-01
-9.1274961597542259E-01
-9.0967741935483892E-01
-9.0719602977667513E-01
-9.0471464019851133E-01
-9.0223325062034765E-01
-8.9975186104218385E-01
-8.9727047146402006E-01
-8.9478908188585626E-01
-8.9230769230769258E-01
-8.8982630272952878E-01
-8.8734491315136499E-01
-8.8486352357320119E-01
-8.8238213399503751E-01
-8.7990074441687371E-01
-8.7741935483870992E-01
-8.7493796526054612E-01
-8.7245657568238233E-01
-8.6997518610421865E-01
-8.6749379652605485E-01
-8.6501240694789105E-01
-8.6253101736972726E-01
-8.6004962779156358E-01
-8.5756823821339978E-01
-8.5508684863523599E-01
-8.5260545905707219E-01
-8.5012406947890851E-01
-8.4764267990074471E-01
-8.4516129032258092E-01
-8.4346349745331095E-01
-8.4176570458404099E-01
-8.4006791171477102E-01
-8.3837011884550106E-01
-8.3667232597623120E-01
-8.3497453310696124E-01
-8.3327674023769127E-01
-8.3157894736842131E-01
-8.2988115449915134E-01
-8.2818336162988138E-01
-8.2648556876061141E-01
-8.2478777589134145E-01
-8.2308998302207148E-01
-8.2139219015280152E-01
-8.1969439728353166E-01
-8.1799660441426170E-01
-8.1629881154499173E-01
-8.1460101867572177E-01
-8.1290322580645180E-01
-8.1120543293718184E-01
-8.0950764006791187E-01
-8.0780984719864191E-01
-8.0611205432937194E-01
-8.0441426146010198E-01
-8.0271646859083212E-01
-8.0101867572156216E-01
-7.9932088285229219E-01
-7.9762308998302223E-01
-7.9592529711375226E-01
-7.9422750424448230E-01
-7.9252971137521233E-01
-7.9083191850594237E-01
-7.8913412563667240E-01
-7.8743633276740255E-01
-7.8573853989813258E-01
-7.8404074702886262E-01
-2.0000000000000018E-01
 QETSC: Bins             =
              -Infinity
-2.2000000000000002E+00
-2.1808467741935487E+00
-2.1606854838709681E+00
-2.1405241935483872E+00
-2.1203629032258067E+00
-2.1002016129032262E+00
-2.0800403225806452E+00
-1.3358870967741936E+00
-1.2772727272727273E+00
-1.2567448680351907E+00
-1.2362170087976541E+00
-1.2148931713447846E+00
-1.1948540706605226E+00
-1.1748847926267283E+00
-1.1067588325652844E+00
-1.0802419354838713E+00
-1.0560483870967745E+00
-1.0342626728110602E+00
-1.0139170506912445E+00
-9.9364055299539189E-01
-9.7219662058371759E-01
-9.5069124423963158E-01
-9.2918586789554558E-01
-9.0824175824175846E-01
-8.8833746898263044E-01
-8.6848635235732030E-01
-8.4863523573201016E-01
-8.2754342431761807E-01
-8.0713073005093394E-01
-7.8675721561969458E-01
-2.2928692699490680E-01
-2.0000000000000018E-01
QETSC: Started iter            1
QETSC: Bin type used         =           2
QETSC: Buffer used           = 0.00000000000E+00
QETSC: EPS interval          = -Infinity,    -0.200
QETSC: Inertia type          =           1
 QETSC: Eigenvalues         =
-2.1908156804629413E+00
-2.1845295867353518E+00
-2.1823047349542852E+00
-2.1803638546863326E+00
-2.1788157696273558E+00
-2.1785687483051266E+00
-2.1764788478324766E+00
-2.1743070896861068E+00
-2.1735124156331467E+00
-2.1719038296038762E+00
-2.1702615697349836E+00
-2.1684555751973371E+00
-2.1680727029059930E+00
-2.1670521707051367E+00
-2.1645039930990242E+00
-2.1641551440305031E+00
-2.1625651814525653E+00
-2.1613384029489788E+00
-2.1609939345258078E+00
-2.1602508235313471E+00
-2.1590407233275450E+00
-2.1587913703600070E+00
-2.1568396924090094E+00
-2.1561919872691524E+00
-2.1558953808964323E+00
-2.1543468358105540E+00
-2.1533902593392700E+00
-2.1531217703447534E+00
-2.1511702653741738E+00
-2.1501837570575049E+00
-2.1493406562351418E+00
-2.1484945481457056E+00
-2.1472343663492786E+00
-2.1470544317907785E+00
-2.1468094651965202E+00
-2.1442876882937245E+00
-2.1440669330662350E+00
-2.1437044572393589E+00
-2.1430226385180355E+00
-2.1428875174597057E+00
-2.1421554535322573E+00
-2.1413123824590370E+00
-2.1402762926580419E+00
-2.1395070680661075E+00
-2.1381072746716492E+00
-2.1376073220207021E+00
-2.1366062221348026E+00
-2.1360801796892068E+00
-2.1353293451663782E+00
-2.1346316848846403E+00
-2.1341459167399153E+00
-2.1332624109041762E+00
-2.1330733593715241E+00
-2.1322575137378306E+00
-2.1311104824520872E+00
-2.1299151165425467E+00
-2.1289273702082512E+00
-2.1279781482604534E+00
-2.1266697254967428E+00
-2.1265380991716349E+00
-2.1258290656776881E+00
-2.1252385635752189E+00
-2.1234312014314769E+00
-2.1222475859158703E+00
-1.2735014606531161E+00
-1.2731393568912732E+00
-1.2574089078904309E+00
-1.2551718020793290E+00
-1.2534226244444711E+00
-1.2532056033018777E+00
-1.2517255181998597E+00
-1.2503771264393946E+00
-1.2497350945319643E+00
-1.2484106800259465E+00
-1.2457515274948885E+00
-1.2445381339134696E+00
-1.2434803527626919E+00
-1.2428857634694308E+00
-1.2409407751695207E+00
-1.2388762674412936E+00
-1.2385895989088664E+00
-1.2375943514760874E+00
-1.2352151075852973E+00
-1.2342413231776623E+00
-1.2339208671562698E+00
-1.2322925313378112E+00
-1.2303266987163333E+00
-1.2288145952053442E+00
-1.2275623612446551E+00
-1.2251274887760555E+00
-1.2248690398395072E+00
-1.2244020371677899E+00
-1.2225781567994110E+00
-1.2218599877588547E+00
-1.2206331195841715E+00
-1.2200679786324033E+00
-1.2196423885106653E+00
-1.2193211799678472E+00
-1.2181445438425336E+00
-1.2178149500691120E+00
-1.2167762589206919E+00
-1.2156307208779562E+00
-1.2148673697795698E+00
-1.2133604072483204E+00
-1.2131079499641848E+00
-1.2116969066913341E+00
-1.2113744886226285E+00
-1.2094246213203588E+00
-1.2083418560820371E+00
-1.2075954084696936E+00
-1.2058784066835047E+00
-1.2056300202945427E+00
-1.2044671904245672E+00
-1.2025774793637372E+00
-1.2016897772461503E+00
-1.2010983781363591E+00
-1.1994724023887946E+00
-1.1990085774807675E+00
-1.1978267170751415E+00
-1.1973529937522436E+00
-1.1952542421736909E+00
-1.1948885694857192E+00
-1.1897477284833609E+00
-1.1890096161161459E+00
-1.1860339996066118E+00
-1.1852294748509398E+00
-1.1840217449355115E+00
-1.1785980808080794E+00
-1.0645613679235533E+00
-1.0580922514639675E+00
-1.0523611221631144E+00
-1.0512915404290284E+00
-1.0475782238172249E+00
-1.0434645557506954E+00
-1.0412622804637965E+00
-1.0411027770761312E+00
-1.0367735446488224E+00
-1.0331036168982215E+00
-1.0313592351016296E+00
-1.0283201763937695E+00
-1.0272003342498190E+00
-1.0234293831191963E+00
-1.0224458091212703E+00
-1.0194959946041200E+00
-1.0180796293430321E+00
-1.0175747835718332E+00
-1.0149339601520666E+00
-1.0133931193144596E+00
-1.0111210614533750E+00
-1.0102337202791913E+00
-1.0088820797889686E+00
-1.0066628466628065E+00
-1.0057934625827289E+00
-1.0046229509823386E+00
-1.0032980055692102E+00
-1.0011322634660491E+00
-9.9870935387567794E-01
-9.9574694892750237E-01
-9.9270614467927054E-01
-9.9216880942324859E-01
-9.8993116294154115E-01
-9.8871184971094306E-01
-9.8658931830368524E-01
-9.8501096351851392E-01
-9.8345886920656111E-01
-9.8223514727482608E-01
-9.8145609141160717E-01
-9.7869994202635224E-01
-9.7710253493670496E-01
-9.7550294976282770E-01
-9.7476625321697707E-01
-9.7331631632835280E-01
-9.7221904567794426E-01
-9.6865828938630283E-01
-9.6843245861321692E-01
-9.6749111062232285E-01
-9.6555727297215477E-01
-9.6378623140685604E-01
-9.6115989944649483E-01
-9.6074705312931596E-01
-9.5765406495932892E-01
-9.5621130254530906E-01
-9.5422825794258725E-01
-9.5077755015257059E-01
-9.4953485985433195E-01
-9.4684017804601150E-01
-9.4463098615301377E-01
-9.4329327846021493E-01
-9.4113137182982909E-01
-9.3858189338117615E-01
-9.3598480158042685E-01
-9.3087087358876586E-01
-8.6921231118458397E-01
-8.6692008161914680E-01
-8.6436429576701901E-01
-8.6351694040407623E-01
-8.6152161073241962E-01
-8.6075852262155983E-01
-8.5831815698001379E-01
-8.5806579592468579E-01
-8.5632975982978143E-01
-8.5607995544183191E-01
-8.5452365606040426E-01
-8.5388570520289708E-01
-8.5330386298757110E-01
-8.5276886664945550E-01
-8.5185401558424445E-01
-8.5145666829656486E-01
-8.5111403876766900E-01
-8.5006157892978285E-01
-8.4956178929538295E-01
-8.4903109004122523E-01
-8.4888725615757654E-01
-8.4812209984026476E-01
-8.4721747193552599E-01
-8.4670987103043427E-01
-8.4597402721069515E-01
-8.4534216507514670E-01
-8.4427044542126062E-01
-8.4399194276508227E-01
-8.4345847628194470E-01
-8.4250061592582703E-01
-8.4209931801601090E-01
-8.4158204299633865E-01
-8.4139966776260111E-01
-8.4084935037955788E-01
-8.3994647654664634E-01
-8.3985144676155599E-01
-8.3945878610142688E-01
-8.3898233661110233E-01
-8.3826134362657390E-01
-8.3765499643951236E-01
-8.3740285477506060E-01
-8.3687073228623454E-01
-8.3607101703407694E-01
-8.3530542559891974E-01
-8.3464859168677319E-01
-8.3375608317024341E-01
-8.3318420297082085E-01
-8.3235603340947328E-01
-8.3186115577343267E-01
-8.3152186315201437E-01
-8.3062009113825930E-01
-8.2989150191201555E-01
-8.2911145442160450E-01
-8.2892935422057890E-01
-8.2864331424946369E-01
-8.2748534629916670E-01
-8.2690414118628353E-01
-8.2581381808809884E-01
-8.2466425395091025E-01
-8.2239143719690067E-01
-8.2052338153186299E-01
-8.1747449905809144E-01
-8.1680027721702475E-01
-8.1407180019028169E-01
QETSC: Iter time (min)       =  62.40
QETSC: Iter time (max)       =  72.30
QETSC: Iter time (avg)       =  71.33
QETSC: Num. of conv. evals   =         257
QETSC: Eigenvalue (1)        =-2.19081568046E+00
QETSC: Eigenvalue (nocc)     =-8.14071800190E-01
QETSC: Max differrence       = 2.19081568046E+00
QETSC: Safe iteration        =      F
QETSC: Finished iter            1
 *****************************************************************

siesta: Program's energy decomposition (eV):
siesta: Ebs     =     -9068.807164
siesta: Eions   =     52214.686667
siesta: Ena     =     11706.338257
siesta: Ekin    =     20923.121069
siesta: Enl     =     -3072.929041
siesta: DEna    =         0.000034
siesta: DUscf   =         0.000000
siesta: DUext   =         0.000000
siesta: Exc     =     -7270.028794
siesta: eta*DQ  =         0.000000
siesta: Emadel  =         0.000000
siesta: Emeta   =         0.000000
siesta: Emolmec =         0.000000
siesta: Ekinion =         0.000000
siesta: Eharris =    -30210.955678
siesta: Etot    =    -29928.185143
siesta: FreeEng =    -29928.185143
timer: Routine,Calls,Time,% =    IterSCF     1     129.772  64.71
             Section          Calls    Walltime % sect.
 IterSCF                          1     131.665  100.00
  setup_H                         1      45.522   34.57
  compute_dm                      1      86.064   65.37
  MPI_ALLREDUCE                   3       0.050    0.04
  MIXER                           1       0.014    0.01
 QETSC: Estimated eigenvalues         =
-1.8129032258064517E+00
-1.7967741935483872E+00
-1.7806451612903227E+00
-1.7645161290322582E+00
-1.7483870967741937E+00
-1.7437788018433180E+00
-1.7391705069124426E+00
-1.7345622119815669E+00
-1.7299539170506915E+00
-1.7253456221198158E+00
-1.7207373271889403E+00
-1.7161290322580647E+00
-1.7115207373271890E+00
-1.7069124423963136E+00
-1.7023041474654379E+00
-1.6976958525345625E+00
-1.6930875576036868E+00
-1.6884792626728113E+00
-1.6838709677419357E+00
-1.6812903225806453E+00
-1.6787096774193551E+00
-1.6761290322580646E+00
-1.6735483870967744E+00
-1.6709677419354840E+00
-1.6683870967741938E+00
-1.6658064516129034E+00
-1.6632258064516132E+00
-1.6606451612903228E+00
-1.6580645161290324E+00
-1.6554838709677422E+00
-1.6529032258064518E+00
-1.6503225806451616E+00
-1.6477419354838712E+00
-1.6451612903225810E+00
-1.6425806451612905E+00
-1.6400000000000001E+00
-1.6374193548387099E+00
-1.6348387096774195E+00
-1.6322580645161293E+00
-1.6296774193548389E+00
-1.6270967741935487E+00
-1.6245161290322583E+00
-1.6219354838709681E+00
-1.6193548387096777E+00
-1.6161290322580648E+00
-1.6129032258064520E+00
-1.6096774193548389E+00
-1.6064516129032260E+00
-1.6032258064516132E+00
-1.6000000000000003E+00
-1.5967741935483875E+00
-1.5935483870967744E+00
-1.5903225806451615E+00
-1.5870967741935487E+00
-1.5838709677419358E+00
-1.5806451612903230E+00
-1.5774193548387099E+00
-1.5741935483870970E+00
-1.5709677419354842E+00
-1.5677419354838713E+00
-1.5645161290322585E+00
-1.5612903225806454E+00
-1.5580645161290325E+00
-1.5548387096774197E+00
-9.7419354838709693E-01
-9.6497695852534582E-01
-9.5576036866359459E-01
-9.4654377880184348E-01
-9.3732718894009237E-01
-9.2811059907834126E-01
-9.1889400921659004E-01
-9.0967741935483892E-01
-9.0660522273425526E-01
-9.0353302611367148E-01
-9.0046082949308781E-01
-8.9738863287250403E-01
-8.9431643625192037E-01
-8.9124423963133659E-01
-8.8817204301075292E-01
-8.8509984639016925E-01
-8.8202764976958548E-01
-8.7895545314900181E-01
-8.7588325652841803E-01
-8.7281105990783436E-01
-8.6973886328725059E-01
-8.6666666666666692E-01
-8.6359447004608325E-01
-8.6052227342549947E-01
-8.5745007680491581E-01
-8.5437788018433203E-01
-8.5130568356374836E-01
-8.4823348694316458E-01
-8.4516129032258092E-01
-8.4285714285714308E-01
-8.4055299539170536E-01
-8.3824884792626753E-01
-8.3594470046082969E-01
-8.3364055299539197E-01
-8.3133640552995414E-01
-8.2903225806451641E-01
-8.2672811059907858E-01
-8.2442396313364075E-01
-8.2211981566820302E-01
-8.1981566820276519E-01
-8.1751152073732736E-01
-8.1520737327188963E-01
-8.1290322580645180E-01
-8.1059907834101397E-01
-8.0829493087557625E-01
-8.0599078341013841E-01
-8.0368663594470058E-01
-8.0138248847926286E-01
-7.9907834101382502E-01
-7.9677419354838719E-01
-7.9447004608294947E-01
-7.9216589861751163E-01
-7.8986175115207380E-01
-7.8755760368663608E-01
-7.8525345622119824E-01
-7.8294930875576052E-01
-7.8064516129032269E-01
-7.7258064516129044E-01
-7.6451612903225818E-01
-7.5645161290322593E-01
-7.4838709677419368E-01
-7.4032258064516143E-01
-7.3225806451612918E-01
-7.2419354838709693E-01
-7.1612903225806468E-01
-6.5161290322580667E-01
-6.4444444444444471E-01
-6.3727598566308263E-01
-6.3010752688172067E-01
-6.2293906810035871E-01
-6.1577060931899663E-01
-6.0860215053763467E-01
-6.0143369175627270E-01
-5.9426523297491063E-01
-5.8709677419354867E-01
-5.8330170777988644E-01
-5.7950664136622421E-01
-5.7571157495256198E-01
-5.7191650853889975E-01
-5.6812144212523752E-01
-5.6432637571157529E-01
-5.6053130929791306E-01
-5.5673624288425083E-01
-5.5294117647058849E-01
-5.4914611005692626E-01
-5.4535104364326403E-01
-5.4155597722960180E-01
-5.3776091081593957E-01
-5.3396584440227735E-01
-5.3017077798861512E-01
-5.2637571157495289E-01
-5.2258064516129066E-01
-5.1950844854070688E-01
-5.1643625192012321E-01
-5.1336405529953943E-01
-5.1029185867895577E-01
-5.0721966205837199E-01
-5.0414746543778832E-01
-5.0107526881720454E-01
-4.9800307219662088E-01
-4.9493087557603715E-01
-4.9185867895545343E-01
-4.8878648233486965E-01
-4.8571428571428599E-01
-4.8264208909370221E-01
-4.7956989247311849E-01
-4.7649769585253476E-01
-4.7342549923195104E-01
-4.7035330261136732E-01
-4.6728110599078360E-01
-4.6420890937019987E-01
-4.6113671274961615E-01
-4.5806451612903243E-01
-4.5483870967741952E-01
-4.5161290322580661E-01
-4.4838709677419375E-01
-4.4516129032258084E-01
-4.4193548387096793E-01
-4.3870967741935502E-01
-4.3548387096774210E-01
-4.3225806451612925E-01
-4.2903225806451634E-01
-4.2580645161290342E-01
-4.2258064516129051E-01
-4.1935483870967760E-01
-4.1612903225806475E-01
-4.1290322580645183E-01
-4.0967741935483892E-01
-4.0645161290322601E-01
-4.0322580645161310E-01
-4.0000000000000024E-01
-3.9677419354838733E-01
-3.9354838709677442E-01
-3.9124423963133664E-01
-3.8894009216589887E-01
-3.8663594470046109E-01
-3.8433179723502325E-01
-3.8202764976958548E-01
-3.7972350230414770E-01
-3.7741935483870992E-01
-3.7511520737327214E-01
-3.7281105990783436E-01
-3.7050691244239659E-01
-3.6820276497695875E-01
-3.6589861751152097E-01
-3.6359447004608320E-01
-3.6129032258064542E-01
-3.5898617511520764E-01
-3.5668202764976986E-01
-3.5437788018433208E-01
-3.5207373271889431E-01
-3.4976958525345647E-01
-3.4746543778801869E-01
-3.4516129032258092E-01
-3.4285714285714314E-01
-3.4055299539170536E-01
-3.3824884792626758E-01
-3.3594470046082980E-01
-3.3364055299539197E-01
-3.3133640552995419E-01
-3.2903225806451641E-01
-3.2645161290322611E-01
-3.2387096774193574E-01
-3.2129032258064544E-01
-3.1870967741935508E-01
-3.1612903225806477E-01
-3.1354838709677446E-01
-3.1096774193548410E-01
-3.0838709677419379E-01
-3.0580645161290343E-01
-3.0322580645161312E-01
-3.0064516129032282E-01
-2.9806451612903245E-01
-2.9548387096774215E-01
-2.9290322580645178E-01
-2.9032258064516148E-01
-2.8774193548387117E-01
-2.8516129032258081E-01
-2.8258064516129050E-01
-2.8000000000000014E-01
-2.7741935483870983E-01
-2.7483870967741952E-01
-2.7225806451612916E-01
-2.6967741935483885E-01
-2.6709677419354849E-01
-2.6451612903225818E-01
-2.5529953917050702E-01
-2.4608294930875591E-01
-2.3686635944700477E-01
-2.2764976958525363E-01
-2.1843317972350246E-01
-2.0000000000000018E-01
 QETSC: Bins             =
              -Infinity
-1.8129032258064517E+00
-1.7822580645161292E+00
-1.7500000000000002E+00
-1.7177419354838712E+00
-1.6854838709677422E+00
-1.6544516129032261E+00
-1.6234838709677422E+00
-1.5919032258064518E+00
-1.5596774193548391E+00
-1.0033870967741938E+00
-9.3917050691244264E-01
-9.0522273425499256E-01
-8.7142857142857166E-01
-8.3982334869431663E-01
-8.0760368663594484E-01
-7.7425115207373285E-01
-7.4193548387096786E-01
-6.5604838709677438E-01
-6.1756272401433709E-01
-5.8492515285684199E-01
-5.5085388994307427E-01
-5.1807174482696339E-01
-4.8433179723502329E-01
-4.5316436251920139E-01
-4.2096774193548403E-01
-3.8827188940092189E-01
-3.5599078341013851E-01
-3.2294470046082979E-01
-2.9187096774193566E-01
-2.5705069124423974E-01
-2.2027649769585270E-01
-2.0000000000000018E-01
QETSC: Started iter            2
QETSC: Bin type used         =           2
QETSC: Buffer used           = 0.00000000000E+00
QETSC: EPS interval          = -Infinity,    -0.200
QETSC: Inertia type          =           1
 QETSC: Eigenvalues         =
-1.7792611815334267E+00
-1.7656199759689781E+00
-1.7577148406096208E+00
-1.7515395509579335E+00
-1.7449626244832075E+00
-1.7394942065513996E+00
-1.7323889833302122E+00
-1.7273000512857648E+00
-1.7205822187332978E+00
-1.7181333740226599E+00
-1.7174388762107180E+00
-1.7154629843573534E+00
-1.7072645388828831E+00
-1.7041139796681135E+00
-1.7030951586726788E+00
-1.6980456550704868E+00
-1.6906758073870911E+00
-1.6894656570106819E+00
-1.6828818336078462E+00
-1.6800449490236604E+00
-1.6775428974425683E+00
-1.6751855541941347E+00
-1.6741192144093673E+00
-1.6714940173717572E+00
-1.6694587372648899E+00
-1.6640966934462149E+00
-1.6605541549955576E+00
-1.6570289785281296E+00
-1.6544703462527370E+00
-1.6533293312212161E+00
-1.6521722657869677E+00
-1.6497956275745638E+00
-1.6488872295415842E+00
-1.6458376870133986E+00
-1.6407671129742605E+00
-1.6372798138077849E+00
-1.6360663285769335E+00
-1.6311411889454495E+00
-1.6303524524509541E+00
-1.6246022054467848E+00
-1.6238700157844594E+00
-1.6221281596128407E+00
-1.6216197294510650E+00
-1.6186987987456360E+00
-1.6161614411011445E+00
-1.6130551260830313E+00
-1.6099750240456292E+00
-1.6089307855953456E+00
-1.6071808700421242E+00
-1.6064432855154376E+00
-1.6013564419165780E+00
-1.6002927470014507E+00
-1.5997913293117494E+00
-1.5977158654251700E+00
-1.5955202717603991E+00
-1.5931924297086142E+00
-1.5855723574295859E+00
-1.5793554894043913E+00
-1.5787320656428900E+00
-1.5770673354536660E+00
-1.5743537321401200E+00
-1.5722790171659897E+00
-1.5583204595060354E+00
-1.5352960271142986E+00
-9.4371670328737667E-01
-9.4142211932772413E-01
-9.3304075865201686E-01
-9.3077619375893517E-01
-9.3026187491119450E-01
-9.2582981168614387E-01
-9.2342734459300446E-01
-9.0629735022680469E-01
-8.9930830896213376E-01
-8.9669115770977570E-01
-8.9207954499751052E-01
-8.9073432102222627E-01
-8.8902039286896606E-01
-8.8708926121513598E-01
-8.8328811445041633E-01
-8.8089793753581669E-01
-8.7449017676933305E-01
-8.7423575321667202E-01
-8.6943848911261756E-01
-8.6916563439397088E-01
-8.6573592567158641E-01
-8.6261012073501731E-01
-8.6104201509238532E-01
-8.5884082705521680E-01
-8.5721675389428376E-01
-8.5062004402183267E-01
-8.4941646803812765E-01
-8.4740145022681723E-01
-8.4194196948733480E-01
-8.3875876613844280E-01
-8.3517125564611283E-01
-8.3486625308013551E-01
-8.3369309182496509E-01
-8.3144801757670528E-01
-8.3029659064422545E-01
-8.2615880392689978E-01
-8.2346608562658741E-01
-8.2190987501426394E-01
-8.1799606934948876E-01
-8.1707689750917745E-01
-8.1646266404384815E-01
-8.1382984555281701E-01
-8.1108431037534090E-01
-8.1023559224132935E-01
-8.0417586142842279E-01
-8.0294410679992989E-01
-8.0054916476278981E-01
-8.0048405652933952E-01
-7.9884147485577006E-01
-7.9598959413927117E-01
-7.9344676974340822E-01
-7.9136476488452434E-01
-7.8971343374957514E-01
-7.8837584539451933E-01
-7.8677307637776073E-01
-7.8342717705135401E-01
-7.7928380692477628E-01
-7.7193837526512465E-01
-7.6296263685101506E-01
-7.5982610839095910E-01
-7.5693024431923295E-01
-7.5439728348290536E-01
-7.4989018788396611E-01
-7.3500600670662419E-01
-6.5720859941599807E-01
-6.3867200933022505E-01
-6.3654841735267120E-01
-6.3186998398991090E-01
-6.2528970111844151E-01
-6.1615639830471491E-01
-6.0902428792916108E-01
-6.0846738600935890E-01
-6.0445938806737387E-01
-5.9299373787189191E-01
-5.8653102086002518E-01
-5.8101827176140142E-01
-5.7786116631117324E-01
-5.7582109762717093E-01
-5.7168382544252572E-01
-5.6929466783584426E-01
-5.6113128914558708E-01
-5.5562757484181924E-01
-5.5377739076950250E-01
-5.4980871067156134E-01
-5.4601760359619822E-01
-5.4486663692709680E-01
-5.3731485605349205E-01
-5.3563058426007171E-01
-5.3086234892193007E-01
-5.2802412125373066E-01
-5.2329512961179037E-01
-5.2193417055398206E-01
-5.1742587244790683E-01
-5.1504298995852493E-01
-5.1257045358694198E-01
-5.1028149917934273E-01
-5.0405801859260180E-01
-5.0235676882098990E-01
-4.9941038593013365E-01
-4.9531379107939533E-01
-4.9148552469856605E-01
-4.9116711854429435E-01
-4.8764802452758382E-01
-4.8314679167636143E-01
-4.8208297075334172E-01
-4.7752994843682600E-01
-4.7120570515592169E-01
-4.6967346432289048E-01
-4.6511182085224245E-01
-4.6210672900705385E-01
-4.6110436412674893E-01
-4.5943676623306939E-01
-4.5575320350788651E-01
-4.5265770295594626E-01
-4.4550415287621697E-01
-4.4311144432442329E-01
-4.4130053189660873E-01
-4.3571140935240549E-01
-4.3331576469806987E-01
-4.2887120845351745E-01
-4.2551632671691936E-01
-4.2298743090997210E-01
-4.2117326649983389E-01
-4.1944774644767291E-01
-4.1374657596279663E-01
-4.1232065133156337E-01
-4.0827228363971041E-01
-4.0696600829770690E-01
-4.0436823599999383E-01
-3.9870492373687771E-01
-3.9836806505439287E-01
-3.9506213450673849E-01
-3.9217739182411043E-01
-3.9057881994405930E-01
-3.8669441242077024E-01
-3.8478181210158580E-01
-3.8058659891587610E-01
-3.7833289660560460E-01
-3.7620411024606298E-01
-3.7404405635104759E-01
-3.7274926643211076E-01
-3.6806500528179220E-01
-3.6527347522808945E-01
-3.6295800115140714E-01
-3.6166208883394213E-01
-3.5902010872966494E-01
-3.5801970617762685E-01
-3.5641683749120301E-01
-3.5486421112882405E-01
-3.4910209727115998E-01
-3.4879925950383733E-01
-3.4592221800211703E-01
-3.4399420323055563E-01
-3.4358721250492780E-01
-3.3866828787972053E-01
-3.3836462882270019E-01
-3.3637688842688712E-01
-3.3343227165187161E-01
-3.3247290187942963E-01
-3.3007368395560943E-01
-3.2375239548801282E-01
-3.2093890408915687E-01
-3.1944277331863496E-01
-3.1890092333360998E-01
-3.1574469784006470E-01
-3.1365899607326869E-01
-3.1275490719094318E-01
-3.1008039048002162E-01
-3.0875870881940004E-01
-3.0796787102572765E-01
-3.0473604949561695E-01
-3.0276913339238831E-01
-2.9863759790998223E-01
-2.9730342671645021E-01
-2.9517955365980081E-01
-2.9057874674666867E-01
-2.8889751991170270E-01
-2.8632519796233780E-01
-2.8326595391294185E-01
-2.8082947649323375E-01
-2.8004794055295107E-01
-2.7678107627703413E-01
-2.7373375089423396E-01
-2.6983745707045403E-01
-2.6489259557498801E-01
-2.6339029627718158E-01
-2.5996373723917948E-01
-2.5668065709606985E-01
-2.5477982782185421E-01
-2.4608950872271601E-01
-2.3020443169806531E-01
-2.1984682702307212E-01
QETSC: Iter time (min)       =  27.53
QETSC: Iter time (max)       =  45.36
QETSC: Iter time (avg)       =  44.47
QETSC: Num. of conv. evals   =         256
QETSC: Eigenvalue (1)        =-1.77926118153E+00
QETSC: Eigenvalue (nocc)     =-2.19846827023E-01
QETSC: Max differrence       = 5.94224973167E-01
QETSC: Safe iteration        =      F
QETSC: Finished iter            2
 *****************************************************************
 QETSC: Estimated eigenvalues         =
-2.0709677419354842E+00
-2.0663594470046087E+00
-2.0617511520737328E+00
-2.0571428571428574E+00
-2.0525345622119819E+00
-2.0479262672811065E+00
-2.0433179723502306E+00
-2.0387096774193552E+00
-2.0341013824884797E+00
-2.0294930875576038E+00
-2.0248847926267284E+00
-2.0202764976958529E+00
-2.0156682027649775E+00
-2.0110599078341016E+00
-2.0064516129032262E+00
-2.0051075268817207E+00
-2.0037634408602152E+00
-2.0024193548387101E+00
-2.0010752688172047E+00
-1.9997311827956992E+00
-1.9983870967741939E+00
-1.9970430107526884E+00
-1.9956989247311832E+00
-1.9943548387096777E+00
-1.9930107526881724E+00
-1.9916666666666669E+00
-1.9903225806451617E+00
-1.9889784946236562E+00
-1.9876344086021509E+00
-1.9862903225806454E+00
-1.9849462365591402E+00
-1.9836021505376347E+00
-1.9822580645161294E+00
-1.9809139784946239E+00
-1.9795698924731187E+00
-1.9782258064516132E+00
-1.9768817204301079E+00
-1.9755376344086024E+00
-1.9741935483870972E+00
-1.9728494623655917E+00
-1.9715053763440862E+00
-1.9701612903225809E+00
-1.9688172043010754E+00
-1.9674731182795702E+00
-1.9661290322580647E+00
-1.9647849462365594E+00
-1.9634408602150539E+00
-1.9620967741935487E+00
-1.9607526881720432E+00
-1.9594086021505379E+00
-1.9580645161290324E+00
-1.9567204301075272E+00
-1.9553763440860217E+00
-1.9540322580645164E+00
-1.9526881720430109E+00
-1.9513440860215057E+00
-1.9500000000000002E+00
-1.9486559139784949E+00
-1.9473118279569894E+00
-1.9459677419354842E+00
-1.9446236559139787E+00
-1.9432795698924734E+00
-1.9419354838709679E+00
-1.9096774193548389E+00
-1.1677419354838712E+00
-1.1641577060931902E+00
-1.1605734767025091E+00
-1.1569892473118282E+00
-1.1534050179211472E+00
-1.1498207885304661E+00
-1.1462365591397852E+00
-1.1426523297491042E+00
-1.1390681003584231E+00
-1.1354838709677422E+00
-1.1318996415770612E+00
-1.1283154121863801E+00
-1.1247311827956992E+00
-1.1211469534050182E+00
-1.1175627240143371E+00
-1.1139784946236562E+00
-1.1103942652329752E+00
-1.1068100358422941E+00
-1.1032258064516132E+00
-1.1017595307917891E+00
-1.1002932551319651E+00
-1.0988269794721410E+00
-1.0973607038123170E+00
-1.0958944281524929E+00
-1.0944281524926689E+00
-1.0929618768328448E+00
-1.0914956011730208E+00
-1.0900293255131968E+00
-1.0885630498533727E+00
-1.0870967741935487E+00
-1.0856304985337246E+00
-1.0841642228739006E+00
-1.0826979472140765E+00
-1.0812316715542525E+00
-1.0797653958944284E+00
-1.0782991202346044E+00
-1.0768328445747803E+00
-1.0753665689149563E+00
-1.0739002932551323E+00
-1.0724340175953082E+00
-1.0709677419354842E+00
-1.0695014662756601E+00
-1.0680351906158361E+00
-1.0665689149560120E+00
-1.0651026392961880E+00
-1.0636363636363639E+00
-1.0621700879765399E+00
-1.0607038123167158E+00
-1.0592375366568918E+00
-1.0577712609970678E+00
-1.0563049853372437E+00
-1.0548387096774197E+00
-1.0533724340175956E+00
-1.0519061583577716E+00
-1.0504398826979475E+00
-1.0489736070381235E+00
-1.0475073313782994E+00
-1.0460410557184754E+00
-1.0445747800586513E+00
-1.0431085043988273E+00
-1.0416422287390033E+00
-1.0401759530791792E+00
-1.0387096774193552E+00
-1.0064516129032262E+00
-9.7419354838709693E-01
-9.0967741935483892E-01
-9.0645161290322607E-01
-9.0322580645161310E-01
-9.0000000000000024E-01
-8.9677419354838728E-01
-8.9354838709677442E-01
-8.9032258064516157E-01
-8.8709677419354860E-01
-8.8387096774193574E-01
-8.8064516129032278E-01
-8.7741935483870992E-01
-8.7419354838709706E-01
-8.7096774193548410E-01
-8.6774193548387124E-01
-8.6451612903225827E-01
-8.6129032258064542E-01
-8.5806451612903256E-01
-8.5483870967741959E-01
-8.5161290322580674E-01
-8.4838709677419377E-01
-8.4516129032258092E-01
-8.4293659621802031E-01
-8.4071190211345970E-01
-8.3848720800889898E-01
-8.3626251390433837E-01
-8.3403781979977776E-01
-8.3181312569521715E-01
-8.2958843159065654E-01
-8.2736373748609593E-01
-8.2513904338153521E-01
-8.2291434927697460E-01
-8.2068965517241399E-01
-8.1846496106785338E-01
-8.1624026696329277E-01
-8.1401557285873216E-01
-8.1179087875417144E-01
-8.0956618464961083E-01
-8.0734149054505022E-01
-8.0511679644048961E-01
-8.0289210233592900E-01
-8.0066740823136839E-01
-7.9844271412680767E-01
-7.9621802002224706E-01
-7.9399332591768645E-01
-7.9176863181312584E-01
-7.8954393770856524E-01
-7.8731924360400463E-01
-7.8509454949944391E-01
-7.8286985539488330E-01
-7.8064516129032269E-01
-7.7603686635944713E-01
-7.7142857142857157E-01
-7.6682027649769602E-01
-7.6221198156682035E-01
-7.5760368663594480E-01
-7.5299539170506924E-01
-7.4838709677419368E-01
-7.4377880184331813E-01
-7.3917050691244257E-01
-7.3456221198156701E-01
-7.2995391705069135E-01
-7.2534562211981579E-01
-7.2073732718894024E-01
-7.1612903225806468E-01
-7.1462865716429125E-01
-7.1312828207051782E-01
-7.1162790697674438E-01
-7.1012753188297095E-01
-7.0862715678919752E-01
-7.0712678169542398E-01
-7.0562640660165055E-01
-7.0412603150787711E-01
-7.0262565641410368E-01
-7.0112528132033025E-01
-6.9962490622655682E-01
-6.9812453113278339E-01
-6.9662415603900996E-01
-6.9512378094523652E-01
-6.9362340585146309E-01
-6.9212303075768955E-01
-6.9062265566391612E-01
-6.8912228057014269E-01
-6.8762190547636926E-01
-6.8612153038259582E-01
-6.8462115528882239E-01
-6.8312078019504896E-01
-6.8162040510127553E-01
-6.8012003000750210E-01
-6.7861965491372866E-01
-6.7711927981995523E-01
-6.7561890472618180E-01
-6.7411852963240826E-01
-6.7261815453863483E-01
-6.7111777944486140E-01
-6.6961740435108796E-01
-6.6811702925731453E-01
-6.6661665416354110E-01
-6.6511627906976767E-01
-6.6361590397599424E-01
-6.6211552888222081E-01
-6.6061515378844726E-01
-6.5911477869467383E-01
-6.5761440360090040E-01
-6.5611402850712697E-01
-6.5461365341335354E-01
-6.5311327831958010E-01
-6.5161290322580667E-01
-6.4854070660522301E-01
-6.4546850998463923E-01
-6.4239631336405556E-01
-6.3932411674347178E-01
-6.3625192012288811E-01
-6.3317972350230434E-01
-6.3010752688172067E-01
-6.2703533026113700E-01
-6.2396313364055322E-01
-6.2089093701996956E-01
[...]
  MPI_ALLGATHER                  56       0.623    0.04
  MPI_BCAST                       2       0.015    0.00
  MPI_RECV                        4       0.002    0.00
>> End of run:  24-SEP-2016  16:26:55
************************************************************************************************************************
***             WIDEN YOUR WINDOW TO 120 CHARACTERS.  Use 'enscript -r -fCourier9' to print this document            ***
************************************************************************************************************************

---------------------------------------------- PETSc Performance Summary: ----------------------------------------------

/home/keceli/lib/siesta-qetsc/Obj/siesta on a arch-gccopt named b442 with 64 processors, by keceli Sat Sep 24 16:26:55 2016
Using Petsc Development GIT revision: v3.7.3-1320-g04d0fa7  GIT Date: 2016-09-01 18:08:27 -0500

                         Max       Max/Min        Avg      Total 
Time (sec):           1.483e+03      1.00002   1.483e+03
Objects:              2.956e+03      1.08557   2.932e+03
Flops:                7.366e+10    652.63981   5.795e+10  3.709e+12
Flops/sec:            4.966e+07    652.64423   3.907e+07  2.500e+09
MPI Messages:         1.515e+04      2.48369   1.238e+04  7.921e+05
MPI Message Lengths:  1.710e+09      1.12597   1.332e+05  1.055e+11
MPI Reductions:       1.212e+04      1.54737

Flop counting convention: 1 flop = 1 real number operation of type (multiply/divide/add/subtract)
                            e.g., VecAXPY() for real vectors of length N --> 2N flops
                            and VecAXPY() for complex vectors of length N --> 8N flops

Summary of Stages:   ----- Time ------  ----- Flops -----  --- Messages ---  -- Message Lengths --  -- Reductions --
                        Avg     %Total     Avg     %Total   counts   %Total     Avg         %Total   counts   %Total 
 0:      Main Stage: 3.4062e-02   0.0%  0.0000e+00   0.0%  0.000e+00   0.0%  0.000e+00        0.0%  0.000e+00   0.0% 
 1:     siesta_init: 9.2897e-01   0.1%  0.0000e+00   0.0%  0.000e+00   0.0%  0.000e+00        0.0%  0.000e+00   0.0% 
 2:   siesta_forces: 1.1572e+02   7.8%  0.0000e+00   0.0%  0.000e+00   0.0%  0.000e+00        0.0%  0.000e+00   0.0% 
 3:    siesta_solve: 2.8563e-02   0.0%  0.0000e+00   0.0%  0.000e+00   0.0%  0.000e+00        0.0%  0.000e+00   0.0% 
 4:    siesta2qetsc: 2.0170e+01   1.4%  0.0000e+00   0.0%  8.064e+03   1.0%  1.633e+00        0.0%  6.900e+01   0.9% 
 5: qetsc_setup_eps: 1.9304e+02  13.0%  7.2332e+09   0.2%  1.327e+05  16.8%  1.079e+05       81.0%  2.360e+02   3.0% 
 6: qetsc_solve_eps: 3.5741e+02  24.1%  3.7017e+12  99.8%  3.114e+05  39.3%  2.508e+04       18.8%  4.227e+03  53.9% 
 7:   qetsc_eigvals: 6.4968e-03   0.0%  0.0000e+00   0.0%  0.000e+00   0.0%  0.000e+00        0.0%  0.000e+00   0.0% 
 8:   qetsc_density: 6.6840e+01   4.5%  0.0000e+00   0.0%  3.400e+05  42.9%  2.475e+02        0.2%  6.812e+03  86.8% 
10:     siesta_misc: 7.2847e+02  49.1%  0.0000e+00   0.0%  0.000e+00   0.0%  0.000e+00        0.0%  0.000e+00   0.0% 
11:     siesta_move: 2.0318e-03   0.0%  0.0000e+00   0.0%  0.000e+00   0.0%  0.000e+00        0.0%  0.000e+00   0.0% 
12: siesta_analysis: 8.4406e-03   0.0%  0.0000e+00   0.0%  0.000e+00   0.0%  0.000e+00        0.0%  0.000e+00   0.0% 
13:      siesta_end: 7.8282e-01   0.1%  0.0000e+00   0.0%  0.000e+00   0.0%  0.000e+00        0.0%  0.000e+00   0.0% 

------------------------------------------------------------------------------------------------------------------------
See the 'Profiling' chapter of the users' manual for details on interpreting output.
Phase summary info:
   Count: number of times phase was executed
   Time and Flops: Max - maximum over all processors
                   Ratio - ratio of maximum to minimum over all processors
   Mess: number of messages sent
   Avg. len: average message length (bytes)
   Reduct: number of global reductions
   Global: entire computation
   Stage: stages of a computation. Set stages with PetscLogStagePush() and PetscLogStagePop().
      %T - percent time in this phase         %F - percent flops in this phase
      %M - percent messages in this phase     %L - percent message lengths in this phase
      %R - percent reductions in this phase
   Total Mflop/s: 10e-6 * (sum of flops over all processors)/(max time over all processors)
------------------------------------------------------------------------------------------------------------------------
Event                Count      Time (sec)     Flops                             --- Global ---  --- Stage ---   Total
                   Max Ratio  Max     Ratio   Max  Ratio  Mess   Avg len Reduct  %T %F %M %L %R  %T %F %M %L %R Mflop/s
------------------------------------------------------------------------------------------------------------------------

--- Event Stage 0: Main Stage


--- Event Stage 1: siesta_init


--- Event Stage 2: siesta_forces


--- Event Stage 3: siesta_solve


--- Event Stage 4: siesta2qetsc

MatConvert            14 1.0 7.4630e-02 2.2 0.00e+00 0.0 0.0e+00 0.0e+00 0.0e+00  0  0  0  0  0   0  0  0  0  0     0
MatAssemblyBegin      15 1.0 4.2093e+0023.7 0.00e+00 0.0 0.0e+00 0.0e+00 3.0e+01  0  0  0  0  0   7  0  0  0 43     0
MatAssemblyEnd        15 1.0 4.6323e-01 1.1 0.00e+00 0.0 8.1e+03 1.6e+02 3.7e+01  0  0  1  0  0   2  0100100 54     0
VecSet                15 1.0 1.2687e-0257.8 0.00e+00 0.0 0.0e+00 0.0e+00 0.0e+00  0  0  0  0  0   0  0  0  0  0     0

--- Event Stage 5: qetsc_setup_eps

MatScale              26 1.0 3.0252e-01 2.3 1.13e+08 1.0 0.0e+00 0.0e+00 0.0e+00  0  0  0  0  0   0100  0  0  0 23910
MatAssemblyBegin      26 1.0 2.1911e-01566.6 0.00e+00 0.0 0.0e+00 0.0e+00 2.6e+01  0  0  0  0  0   0  0  0  0 11     0
MatAssemblyEnd        26 1.0 1.7377e+00 1.1 0.00e+00 0.0 1.7e+03 5.8e+03 1.0e+02  0  0  0  0  1   1  0  1  0 44     0
MatGetSubMatrice      13 1.0 1.8879e+02 1.1 0.00e+00 0.0 1.3e+05 6.5e+05 3.9e+01 13  0 17 81  0  97  0 99100 17     0
MatAXPY               13 1.0 3.5311e-01 1.8 0.00e+00 0.0 0.0e+00 0.0e+00 0.0e+00  0  0  0  0  0   0  0  0  0  0     0
MatRedundantMat       13 1.0 1.9262e+02 1.0 0.00e+00 0.0 1.3e+05 6.4e+05 2.3e+02 13  0 17 81  3 100  0100100 99     0
MatMPIConcateSeq      13 1.0 1.1417e+01 3.2 0.00e+00 0.0 1.7e+03 5.8e+03 2.0e+02  0  0  0  0  2   3  0  1  0 83     0
VecSet                13 1.0 8.5831e-05 3.3 0.00e+00 0.0 0.0e+00 0.0e+00 0.0e+00  0  0  0  0  0   0  0  0  0  0     0

--- Event Stage 6: qetsc_solve_eps

MatMult             4113 0.0 8.9354e+01 0.0 7.16e+10 0.0 2.1e+05 2.3e+04 0.0e+00  5 98 26  5  0  19 98 67 25  0 40682
MatSolve            1400 0.0 5.5229e+01 0.0 0.00e+00 0.0 7.8e+04 2.4e+04 1.2e+03  3  0 10  2 16  12  0 25  9 29     0
MatCholFctrSym         1 1.0 1.8746e+00 1.2 0.00e+00 0.0 0.0e+00 0.0e+00 5.0e+00  0  0  0  0  0   0  0  0  0  0     0
MatCholFctrNum        21 1.5 8.2082e+01 1.5 0.00e+00 0.0 0.0e+00 0.0e+00 0.0e+00  5  0  0  0  0  22  0  0  0  0     0
MatCopy               20 1.5 1.0834e+01 1.6 0.00e+00 0.0 0.0e+00 0.0e+00 7.9e+01  1  0  0  0  1   3  0  0  0  2     0
MatConvert             1 1.0 9.4146e-02 1.3 0.00e+00 0.0 0.0e+00 0.0e+00 0.0e+00  0  0  0  0  0   0  0  0  0  0     0
MatAssemblyBegin      45 1.5 2.4030e+00675.9 0.00e+00 0.0 0.0e+00 0.0e+00 8.5e+01  0  0  0  0  1   0  0  0  0  2     0
MatAssemblyEnd        45 1.5 3.1141e+00 1.6 0.00e+00 0.0 2.9e+03 5.8e+03 2.2e+02  0  0  0  0  3   1  0  1  0  5     0
MatGetRow         180544 1.5 1.4562e+00 1.8 0.00e+00 0.0 0.0e+00 0.0e+00 0.0e+00  0  0  0  0  0   0  0  0  0  0     0
MatGetRowIJ            1 1.0 7.2019e-037551.8 0.00e+00 0.0 0.0e+00 0.0e+00 0.0e+00  0  0  0  0  0   0  0  0  0  0     0
MatGetSubMatrice       2 1.0 2.9287e+01 1.1 0.00e+00 0.0 2.0e+04 6.5e+05 6.0e+00  2  0  3 12  0   8  0  6 66  0     0
MatGetOrdering         1 1.0 2.0643e-02422.4 0.00e+00 0.0 0.0e+00 0.0e+00 0.0e+00  0  0  0  0  0   0  0  0  0  0     0
MatZeroEntries        20 1.5 4.8754e-01 1.6 0.00e+00 0.0 0.0e+00 0.0e+00 0.0e+00  0  0  0  0  0   0  0  0  0  0     0
MatAXPY               21 1.5 1.7103e+01 1.6 0.00e+00 0.0 2.7e+03 5.8e+03 2.5e+02  1  0  0  0  3   4  0  1  0  6     0
MatRedundantMat        2 1.0 3.0022e+01 1.0 0.00e+00 0.0 2.0e+04 6.4e+05 3.6e+01  2  0  3 12  0   8  0  7 66  1     0
MatMPIConcateSeq       2 1.0 2.1794e+00 4.0 0.00e+00 0.0 2.6e+02 5.8e+03 3.0e+01  0  0  0  0  0   0  0  0  0  1     0
VecDot               239 0.0 9.7707e-01 0.0 1.39e+06 0.0 0.0e+00 0.0e+00 1.1e+02  0  0  0  0  1   0  0  0  0  3    43
VecCopy               26 0.0 8.9884e-05 0.0 0.00e+00 0.0 0.0e+00 0.0e+00 0.0e+00  0  0  0  0  0   0  0  0  0  0     0
VecSet              142559.4 2.2330e-02263.8 0.00e+00 0.0 0.0e+00 0.0e+00 0.0e+00  0  0  0  0  0   0  0  0  0  0     0
VecScatterBegin     6909 0.0 7.3103e+00 0.0 0.00e+00 0.0 2.9e+05 2.3e+04 1.2e+03  0  0 36  6 15   0  0 92 34 28     0
VecScatterEnd       5511 0.0 1.3038e-01 0.0 0.00e+00 0.0 0.0e+00 0.0e+00 0.0e+00  0  0  0  0  0   0  0  0  0  0     0
VecSetRandom          14 0.0 2.6068e-02 0.0 0.00e+00 0.0 0.0e+00 0.0e+00 0.0e+00  0  0  0  0  0   0  0  0  0  0     0
EPSSetUp              21 1.0 1.5078e+02 1.0 0.00e+00 0.0 2.4e+04 5.4e+05 6.6e+02 10  0  3 12  8  42  0  8 66 16     0
EPSSolve              14 1.0 2.8489e+02 1.0 7.36e+10 0.0 2.9e+05 2.3e+04 4.0e+03 19100 37  6 50  80100 93 34 94 12994
STSetUp               35 1.0 7.4314e+01 1.1 0.00e+00 0.0 1.8e+03 5.8e+03 2.3e+02  5  0  0  0  3  20  0  1  0  6     0
STApply             1400 0.0 7.8650e+01 0.0 2.44e+10 0.0 1.5e+05 2.3e+04 1.2e+03  5 36 19  3 16  19 36 50 18 29 16860
STMatSolve          1400 0.0 5.5299e+01 0.0 0.00e+00 0.0 7.8e+04 2.4e+04 1.2e+03  3  0 10  2 16  12  0 25  9 29     0
KSPSetUp              21 1.5 2.0504e-05 5.4 0.00e+00 0.0 0.0e+00 0.0e+00 0.0e+00  0  0  0  0  0   0  0  0  0  0     0
KSPSolve            1400 0.0 5.5267e+01 0.0 0.00e+00 0.0 7.8e+04 2.4e+04 1.2e+03  3  0 10  2 16  12  0 25  9 29     0
PCSetUp               21 1.5 8.3997e+01 1.5 0.00e+00 0.0 0.0e+00 0.0e+00 1.0e+01  5  0  0  0  0  22  0  0  0  0     0
PCApply             1400 0.0 5.5232e+01 0.0 0.00e+00 0.0 7.8e+04 2.4e+04 1.2e+03  3  0 10  2 16  12  0 25  9 29     0
BVCreate              3110.3 1.1360e-01 2.5 0.00e+00 0.0 0.0e+00 0.0e+00 1.6e+02  0  0  0  0  2   0  0  0  0  4     0
BVCopy                26 0.0 2.1895e-02 0.0 0.00e+00 0.0 0.0e+00 0.0e+00 0.0e+00  0  0  0  0  0   0  0  0  0  0     0
BVMultVec           2685 0.0 3.3816e-01 0.0 7.95e+08 0.0 0.0e+00 0.0e+00 0.0e+00  0  1  0  0  0   0  1  0  0  0 89664
BVMultInPlace         26 0.0 2.3159e-02 0.0 3.44e+08 0.0 0.0e+00 0.0e+00 0.0e+00  0  0  0  0  0   0  0  0  0  0 217003
BVDotVec            2685 0.0 5.4175e+01 0.0 4.75e+10 0.0 1.3e+05 2.3e+04 2.0e+03  3 60 16  3 25  13 60 40 15 46 40891
BVOrthogonalizeV    1368 0.0 5.4320e+01 0.0 4.83e+10 0.0 1.3e+05 2.3e+04 2.0e+03  3 61 16  3 25  13 61 40 15 46 41340
BVScale             1400 0.0 2.2120e-02 0.0 4.08e+06 0.0 0.0e+00 0.0e+00 0.0e+00  0  0  0  0  0   0  0  0  0  0 10041
BVNormVec            239 0.0 4.1320e+00 0.0 4.16e+09 0.0 7.2e+03 2.3e+04 1.1e+02  0  3  1  0  1   1  3  2  1  3 30219
BVSetRandom           14 0.0 3.1356e-02 0.0 0.00e+00 0.0 0.0e+00 0.0e+00 0.0e+00  0  0  0  0  0   0  0  0  0  0     0
DSSolve               26 0.0 1.9390e-02 0.0 0.00e+00 0.0 0.0e+00 0.0e+00 0.0e+00  0  0  0  0  0   0  0  0  0  0     0
DSVectors           2071 0.0 4.1151e-04 0.0 0.00e+00 0.0 0.0e+00 0.0e+00 0.0e+00  0  0  0  0  0   0  0  0  0  0     0
DSOther               26 0.0 2.4581e-03 0.0 0.00e+00 0.0 0.0e+00 0.0e+00 0.0e+00  0  0  0  0  0   0  0  0  0  0     0

--- Event Stage 7: qetsc_eigvals


--- Event Stage 8: qetsc_density

VecCopy             3584 1.0 4.0996e-03 1.9 0.00e+00 0.0 0.0e+00 0.0e+00 0.0e+00  0  0  0  0  0   0  0  0  0  0     0
VecSet               256 1.0 8.1725e-0311.1 0.00e+00 0.0 0.0e+00 0.0e+00 0.0e+00  0  0  0  0  0   0  0  0  0  0     0
VecScatterBegin     7174 1.0 3.1909e+01 1.1 0.00e+00 0.0 2.3e+05 7.3e+02 3.6e+03  2  0 29  0 46  45  0 67 84 53     0
VecScatterEnd       3590 1.0 9.9309e+00 5.7 0.00e+00 0.0 0.0e+00 0.0e+00 0.0e+00  0  0  0  0  0   7  0  0  0  0     0
BVCopy              3584 1.0 1.3010e-02 2.2 0.00e+00 0.0 0.0e+00 0.0e+00 0.0e+00  0  0  0  0  0   0  0  0  0  0     0

--- Event Stage 9: Unknown


--- Event Stage 10: siesta_misc


--- Event Stage 11: siesta_move


--- Event Stage 12: siesta_analysis


--- Event Stage 13: siesta_end

------------------------------------------------------------------------------------------------------------------------

Memory usage is given in bytes:

Object Type          Creations   Destructions     Memory  Descendants' Mem.
Reports information only for process 0.

--- Event Stage 0: Main Stage


--- Event Stage 1: siesta_init


--- Event Stage 2: siesta_forces


--- Event Stage 3: siesta_solve


--- Event Stage 4: siesta2qetsc

              Matrix    45              0            0     0.
              Vector    16              1         1648     0.
      Vector Scatter    15              0            0     0.
           Index Set     2              2        21348     0.

--- Event Stage 5: qetsc_setup_eps

              Matrix    52             39     42877640     0.
              Vector    27             26       555568     0.
      Vector Scatter    13             13        13936     0.
           Index Set    52             26       171808     0.
          EPS Solver     1              0            0     0.
  Spectral Transform     1              0            0     0.
       Krylov Solver     1              0            0     0.
      Preconditioner     1              0            0     0.
       Basis Vectors     1              0            0     0.
         PetscRandom     1              0            0     0.
              Region     1              0            0     0.
       Direct Solver     1              0            0     0.

--- Event Stage 6: qetsc_solve_eps

              Matrix    72             60   2086038804     0.
              Vector   187            165      2716960     0.
      Vector Scatter    24             20        21440     0.
           Index Set    55             50       322976     0.
          EPS Solver     1              0            0     0.
  Spectral Transform     1              0            0     0.
       Krylov Solver     1              0            0     0.
      Preconditioner     1              0            0     0.
       Basis Vectors    22             20        21120     0.
              Region     1              0            0     0.
       Direct Solver     1              0            0     0.

--- Event Stage 7: qetsc_eigvals


--- Event Stage 8: qetsc_density

              Vector   270             14       349216     0.
      Vector Scatter   704            448       490448     0.
           Index Set  1152           1152      1229312     0.

--- Event Stage 9: Unknown


--- Event Stage 10: siesta_misc


--- Event Stage 11: siesta_move


--- Event Stage 12: siesta_analysis


--- Event Stage 13: siesta_end

              Viewer     1              0            0     0.
========================================================================================================================
Average time to get PetscTime(): 9.53674e-08
Average time for MPI_Barrier(): 4.67777e-05
Average time for zero size MPI_Send(): 6.13928e-06
#PETSc Option Table entries:
-eps_interval -2.2,-0.2
-eps_krylovschur_detect_zeros 0
-eps_krylovschur_partitions 32
-ioptbin 2
-ioptinertia 1
-ioptleft 2
-isglobal 1
-log_view
-mat_mumps_cntl_3 1e-12
-mat_mumps_icntl_13 1
-mat_mumps_icntl_24 1
-mat_mumps_icntl_28 2
-mat_mumps_icntl_29 1
-roptbuffer 0.1
-roptdiff 0.01
-roptleft -2.2
-roptright -0.2
-st_pc_factor_mat_solver_package mumps
-writeeigs 1
#End of PETSc Option Table entries
Compiled without FORTRAN kernels
Compiled with full precision matrices (default)
sizeof(short) 2 sizeof(int) 4 sizeof(long) 8 sizeof(void*) 8 sizeof(PetscScalar) 8 sizeof(PetscInt) 4
Configure options: --download-metis=1 --download-mumps=1 --download-parmetis=1 --download-ptscotch=1 --download-scalapack=1 --with-blas-lapack-dir=/soft/mkl/11.1.0.080/mkl/ --with-debugging=0 --with-mkl_pardiso-dir=/soft/mkl/11.1.0.080/mkl/ --with-shared-libraries=0 -COPTFLAGS="-O3 -g" -CXXOPTFLAGS="-O3 -g" -FOPTFLAGS="-O3 -g" CC=mpicc CXX=mpicxx FC=mpif90 PETSC_ARCH=arch-gccopt
-----------------------------------------
Libraries compiled on Fri Sep 23 14:58:29 2016 on blogin3 
Machine characteristics: Linux-2.6.32-642.1.1.el6.x86_64-x86_64-with-centos-6.7-Final
Using PETSc directory: /home/keceli/lib/petsc
Using PETSc arch: arch-gccopt
-----------------------------------------

Using C compiler: mpicc   -Wall -Wwrite-strings -Wno-strict-aliasing -Wno-unknown-pragmas -fvisibility=hidden -O3 -g  ${COPTFLAGS} ${CFLAGS}
Using Fortran compiler: mpif90  -Wall -ffree-line-length-0 -Wno-unused-dummy-argument -O3 -g   ${FOPTFLAGS} ${FFLAGS} 
-----------------------------------------

Using include paths: -I/home/keceli/lib/petsc/arch-gccopt/include -I/home/keceli/lib/petsc/include -I/home/keceli/lib/petsc/include -I/home/keceli/lib/petsc/arch-gccopt/include -I/soft/mkl/11.1.0.080/mkl/include -I/blues/gpfs/home/software/spack/opt/spack/linux-x86_64/gcc-5.3.0/mpich-3.2-wraqufukmp7yzyl6a644pnmda7wkg7w7/include
-----------------------------------------

Using C linker: mpicc
Using Fortran linker: mpif90
Using libraries: -Wl,-rpath,/home/keceli/lib/petsc/arch-gccopt/lib -L/home/keceli/lib/petsc/arch-gccopt/lib -lpetsc -Wl,-rpath,/home/keceli/lib/petsc/arch-gccopt/lib -L/home/keceli/lib/petsc/arch-gccopt/lib -lcmumps -ldmumps -lsmumps -lzmumps -lmumps_common -lpord -lscalapack -Wl,-rpath,/soft/mkl/11.1.0.080/mkl/lib/intel64 -L/soft/mkl/11.1.0.080/mkl/lib/intel64 -lmkl_intel_lp64 -lmkl_core -lmkl_intel_thread -liomp5 -ldl -lpthread -lm -lparmetis -lmetis -lptesmumps -lptscotch -lptscotcherr -lscotch -lscotcherr -lX11 -lhwloc -lpthread -lssl -lcrypto -lm -L/blues/gpfs/home/software/spack/opt/spack/linux-x86_64/gcc-4.4.7/gcc-5.3.0-fygfl7rvyuiteto27dlhmilp5cstw2o2/lib64 -L/blues/gpfs/home/software/spack/opt/spack/linux-x86_64/gcc-5.3.0/mpich-3.2-wraqufukmp7yzyl6a644pnmda7wkg7w7/lib -L/blues/gpfs/home/software/spack/opt/spack/linux-x86_64/gcc-4.4.7/gcc-5.3.0-fygfl7rvyuiteto27dlhmilp5cstw2o2/lib64/gcc/x86_64-unknown-linux-gnu/5.3.0 -L/soft/intel/13.1.3/lib/intel64 -L/soft/intel/13.1.3/ipp/lib/intel64 -L/soft/intel/13.1.3/tbb/lib/intel64/gcc4.4 -L/soft/lcrc/lib -lmpifort -lgfortran -lm -Wl,-rpath,/blues/gpfs/home/software/spack/opt/spack/linux-x86_64/gcc-4.4.7/gcc-5.3.0-fygfl7rvyuiteto27dlhmilp5cstw2o2/lib:/blues/gpfs/home/software/spack/opt/spack/linux-x86_64/gcc-4.4.7/gcc-5.3.0-fygfl7rvyuiteto27dlhmilp5cstw2o2/lib64 -Wl,-rpath,/blues/gpfs/home/software/spack/opt/spack/linux-x86_64/gcc-5.3.0/mpich-3.2-wraqufukmp7yzyl6a644pnmda7wkg7w7/lib -lgfortran -lm -lquadmath -lm -lmpicxx -lstdc++ -lrt -lm -lpthread -lz -Wl,-rpath,/blues/gpfs/home/software/spack/opt/spack/linux-x86_64/gcc-4.4.7/gcc-5.3.0-fygfl7rvyuiteto27dlhmilp5cstw2o2/lib:/blues/gpfs/home/software/spack/opt/spack/linux-x86_64/gcc-4.4.7/gcc-5.3.0-fygfl7rvyuiteto27dlhmilp5cstw2o2/lib64 -L/blues/gpfs/home/software/spack/opt/spack/linux-x86_64/gcc-5.3.0/mpich-3.2-wraqufukmp7yzyl6a644pnmda7wkg7w7/lib -L/blues/gpfs/home/software/spack/opt/spack/linux-x86_64/gcc-4.4.7/gcc-5.3.0-fygfl7rvyuiteto27dlhmilp5cstw2o2/lib64/gcc/x86_64-unknown-linux-gnu/5.3.0 -L/blues/gpfs/home/software/spack/opt/spack/linux-x86_64/gcc-4.4.7/gcc-5.3.0-fygfl7rvyuiteto27dlhmilp5cstw2o2/lib64 -L/soft/intel/13.1.3/lib/intel64 -L/soft/intel/13.1.3/ipp/lib/intel64 -L/soft/intel/13.1.3/tbb/lib/intel64/gcc4.4 -L/soft/lcrc/lib -L/blues/gpfs/home/software/spack/opt/spack/linux-x86_64/gcc-4.4.7/gcc-5.3.0-fygfl7rvyuiteto27dlhmilp5cstw2o2/lib64 -ldl -Wl,-rpath,/blues/gpfs/home/software/spack/opt/spack/linux-x86_64/gcc-5.3.0/mpich-3.2-wraqufukmp7yzyl6a644pnmda7wkg7w7/lib -lmpi -lgcc_s -ldl 
-----------------------------------------

