s.runSiesta: Submission time = 38s31m14h
s.runSiesta: Job name = q32_b212_n4_s64_p64
s.runSiesta: Number of ranks = 64
s.runSiesta: Number of slices = 64
38s31m14h
-ioptbin 2
-ioptinertia 1
-ioptleft 2
-isglobal 1
-roptleft -2.2
-roptright -0.2
-writeeigs 1
-roptbuffer 0.1
-roptdiff 0.01
# A chain of identical atoms (instead of an xyz file) can be specified with the following options
#-N 10 # Number of atoms
#-Z 8 # Atomic number
#-c 32 # Maximum number of interactions of an atom

# A petsc matrix (binary) can be given
#-method file
#-fA '/Volumes/s/matrices/petscbinary/graphene_xxs_A'
#-fB '/Volumes/s/matrices/petscbinary/graphene_xxs_B'
#-scfthresh 1.e-3

#PETSc options

-log_view
#-mat_mumps_icntl_13 1 #turn off scaLAPACK for matrix inertia
#-mat_mumps_icntl_24 1 #null pivot row detection for matrix inertia
#-mat_mumps_icntl_23 0
-mat_mumps_icntl_28 1
#-mat_mumps_icntl_28 2
#-mat_mumps_icntl_29 1 # ptscotch
#-mat_mumps_icntl_29 2 # parmetis
#-malloc_info
#-mat_view ::ascii_info
#-mat_getrow_uppertriangular 1
#-st_type sinvert
#-st_ksp_type preonly
#-st_pc_type cholesky
#-st_pc_factor_mat_solver_package mumps
-st_pc_factor_mat_solver_package mkl_pardiso
#SLEPc options
#-eps_view
#-eps_view_values
#-eps_krylovschur_partitions 1
#-eps_krylovschur_nev 120
-eps_interval -2.2,-0.2
#-eps_tol  1.e-8
-eps_krylovschur_detect_zeros 0
#-eps_purify 1
SystemName liquid_D2O_64
SystemLabel D2O_64

UseTreeTimer .true.
DM.MixingWeight 0.3
DM.NumberPulay 3

SolutionMethod  slepc1 #slepc0 for the older method
#SolutionMethod diagon
#BlockSize 23
WriteDM .false.
WriteDM.NetCDF .false.
WriteDMHS.NetCDF .false.
LongOutput .false.
#MaxSCFIterations 2
##################################################
# Do not change below this line                  #
##################################################

%block SuperCell
1 0 0
0 1 0
0 0 1
%endblock SuperCell

NumberOfAtoms 192
NumberOfSpecies 2
#MaxSCFIterations 1

xc.functional GGA
xc.authors PBE 
MeshCutoff 150.0 Ry

%block ChemicalSpeciesLabel
  1   8  O
  2   1  H  
%endblock ChemicalSpeciesLabel

#%block AtomicMass
#  2   2.0
#%endblock AtomicMass

%block PAO.Basis # qz+tp+dp'
O 4
n=2 0 4 E 50.0 8.0
 10.0 5.0 3.5 2.0
n=2 1 4 E 10.0 8.0
 10.0 5.0 3.5 2.0
n=3 2 3 E 40.0 9.0 Q 6.0 0.00
 10.0 2.0 3.0
n=4 3 2 E 50.0 9.0 Q 17.0 0.40
 10.0 1.7
H 3
n=1 0 4 E 50.0 9.0
 10.0 5.0 3.5 2.0
n=2 1 3 E 50.0 9.0 Q 3.5 0.00
 10.0 2.0 4.0
n=3 2 2 E 50.0 9.0 Q 16.0 0.80
 10.0 2.0
%endblock PAO.Basis

LatticeConstant 12.418275010405969 Ang
%block LatticeVectors   
  1.0  0.0  0.0
  0.0  1.0  0.0
  0.0  0.0  1.0
%endblock LatticeVectors   

AtomicCoordinatesFormat NotScaledCartesianAng
%block AtomicCoordinatesAndAtomicSpecies < coord64.data
Siesta Version: siesta-trunk-492
Architecture  : x86_64-unknown-linux-gnu--unknown
Compiler flags: mpif90 -g -O3 -I/home/keceli/lib/petsc/include -I/home/keceli/lib/petsc/arch--gccopt/include -I/home/keceli/lib/slepc/arch-gccopt/include -I/home/keceli/lib/slepc/include -I/soft/mkl/11.1.0.080/mkl/include -I/blues/gpfs/home/software/spack/opt/spack/linux-x86_64/gcc-5.3.0/mpich-3.2-wraqufukmp7yzyl6a644pnmda7wkg7w7/include
PP flags      : -DMPI -DMPI_TIMING -DFC_HAVE_FLUSH -DFC_HAVE_ABORT 
PARALLEL version

* Running on   64 nodes in parallel
>> Start of run:  24-SEP-2016  14:31:39

                           ***********************       
                           *  WELCOME TO SIESTA  *       
                           ***********************       
WARNING: Siesta is reading its input from file INPUT_DEBUG

reinit: -----------------------------------------------------------------------
reinit: System Name: liquid_D2O_64
reinit: -----------------------------------------------------------------------
reinit: System Label: D2O_64                                                      
reinit: -----------------------------------------------------------------------

initatom: Reading input for the pseudopotentials and atomic orbitals ----------
Species number:   1 Atomic number:    8 Label: O
Species number:   2 Atomic number:    1 Label: H

Ground state valence configuration:   2s02  2p04
Reading pseudopotential information in formatted form from O.psf

Valence configuration for pseudopotential generation:
2s( 2.00) rc: 1.14
2p( 4.00) rc: 1.14
3d( 0.00) rc: 1.14
4f( 0.00) rc: 1.14
Ground state valence configuration:   1s01
Reading pseudopotential information in formatted form from H.psf

Valence configuration for pseudopotential generation:
1s( 0.60) rc: 1.25
2p( 0.00) rc: 1.25
3d( 0.00) rc: 1.25
4f( 0.00) rc: 1.25
For O, standard SIESTA heuristics set lmxkb to 4
 (one more than the basis l, including polarization orbitals).
Use PS.lmax or PS.KBprojectors blocks to override.
Warning: For O lmxkb would have been set to 4
Setting it to maximum value of 3 (f projector)
For H, standard SIESTA heuristics set lmxkb to 3
 (one more than the basis l, including polarization orbitals).
Use PS.lmax or PS.KBprojectors blocks to override.

<basis_specs>
===============================================================================
O                    Z=   8    Mass=  16.000        Charge= 0.17977+309
Lmxo=3 Lmxkb= 3    BasisType=split      Semic=F
L=0  Nsemic=0  Cnfigmx=2
          n=1  nzeta=4  polorb=0
            splnorm:   0.15000    
               vcte:    50.000    
               rinn:    8.0000    
               qcoe:    0.0000    
               qyuk:    0.0000    
               qwid:   0.10000E-01
                rcs:    10.000      5.0000      3.5000      2.0000    
            lambdas:    1.0000      1.0000      1.0000      1.0000    
L=1  Nsemic=0  Cnfigmx=2
          n=1  nzeta=4  polorb=0
            splnorm:   0.15000    
               vcte:    10.000    
               rinn:    8.0000    
               qcoe:    0.0000    
               qyuk:    0.0000    
               qwid:   0.10000E-01
                rcs:    10.000      5.0000      3.5000      2.0000    
            lambdas:    1.0000      1.0000      1.0000      1.0000    
L=2  Nsemic=0  Cnfigmx=3
          n=1  nzeta=3  polorb=0
            splnorm:   0.15000    
               vcte:    40.000    
               rinn:    9.0000    
               qcoe:    6.0000    
               qyuk:    0.0000    
               qwid:   0.10000E-01
                rcs:    10.000      2.0000      3.0000    
            lambdas:    1.0000      1.0000      1.0000    
L=3  Nsemic=0  Cnfigmx=4
          n=1  nzeta=2  polorb=0
            splnorm:   0.15000    
               vcte:    50.000    
               rinn:    9.0000    
               qcoe:    17.000    
               qyuk:   0.40000    
               qwid:   0.10000E-01
                rcs:    10.000      1.7000    
            lambdas:    1.0000      1.0000    
-------------------------------------------------------------------------------
L=0  Nkbl=1  erefs: 0.17977+309
L=1  Nkbl=1  erefs: 0.17977+309
L=2  Nkbl=1  erefs: 0.17977+309
L=3  Nkbl=1  erefs: 0.17977+309
===============================================================================
</basis_specs>

atom: Called for O                     (Z =   8)

read_vps: Pseudopotential generation method:
read_vps: ATM3      Troullier-Martins                       
Total valence charge:    6.00000

read_vps: Pseudopotential includes a core correction:
read_vps: Pseudo-core for xc-correction

xc_check: Exchange-correlation functional:
xc_check: GGA Perdew, Burke & Ernzerhof 1996
V l=0 = -2*Zval/r beyond r=  1.1278
V l=1 = -2*Zval/r beyond r=  1.1278
V l=2 = -2*Zval/r beyond r=  1.1278
V l=3 = -2*Zval/r beyond r=  1.1278
All V_l potentials equal beyond r=  1.1278
This should be close to max(r_c) in ps generation
All pots = -2*Zval/r beyond r=  1.1278

VLOCAL1: 99.0% of the norm of Vloc inside     34.126 Ry
VLOCAL1: 99.9% of the norm of Vloc inside     77.774 Ry
atom: Maximum radius for 4*pi*r*r*local-pseudopot. charge    1.37759
atom: Maximum radius for r*vlocal+2*Zval:    1.18566
GHOST: No ghost state for L =  0
GHOST: No ghost state for L =  1
GHOST: No ghost state for L =  2
GHOST: No ghost state for L =  3

KBgen: Kleinman-Bylander projectors: 
   l= 0   rc=  1.262145   el= -1.757696   Ekb=  9.253654   kbcos=  0.328369
   l= 1   rc=  1.262145   el= -0.664256   Ekb= -7.897175   kbcos= -0.393093
   l= 2   rc=  1.343567   el=  0.002031   Ekb= -1.922379   kbcos= -0.003517
   l= 3   rc=  1.394919   el=  0.003153   Ekb= -0.738278   kbcos= -0.000358

KBgen: Total number of  Kleinman-Bylander projectors:   16
atom: -------------------------------------------------------------------------

atom: SANKEY-TYPE ORBITALS:
atom: Selected multiple-zeta basis: split     

SPLIT: Orbitals with angular momentum L= 0

SPLIT: Basis orbitals for state 2s

   izeta = 1
                 lambda =    1.000000
                     rc =   10.181049
                 energy =   -1.757767
                kinetic =    1.546187
    potential(screened) =   -3.303954
       potential(ionic) =  -11.175858

   izeta = 2
                 rmatch =    5.055603
              splitnorm =    0.001043
                 energy =   -1.756217
* WARNING: effective split_norm is quite small. Orbitals will be very similar.
                kinetic =    1.590301
    potential(screened) =   -3.346518
       potential(ionic) =  -11.267994

   izeta = 3
                 rmatch =    3.562532
              splitnorm =    0.023118
                 energy =   -1.724097
* WARNING: effective split_norm is quite small. Orbitals will be very similar.
                kinetic =    1.812689
    potential(screened) =   -3.536786
       potential(ionic) =  -11.661476

   izeta = 4
                 rmatch =    2.004519
              splitnorm =    0.368983
                 energy =   -0.954778
                kinetic =    3.368396
    potential(screened) =   -4.323174
       potential(ionic) =  -13.178438

SPLIT: Orbitals with angular momentum L= 1

SPLIT: Basis orbitals for state 2p

   izeta = 1
                 lambda =    1.000000
                     rc =   10.181049
                 energy =   -0.664314
                kinetic =    4.714332
    potential(screened) =   -5.378647
       potential(ionic) =  -12.967201

   izeta = 2
                 rmatch =    5.055603
              splitnorm =    0.008251
                 energy =   -0.656950
* WARNING: effective split_norm is quite small. Orbitals will be very similar.
                kinetic =    4.990409
    potential(screened) =   -5.647359
       potential(ionic) =  -13.410842

   izeta = 3
                 rmatch =    3.562532
              splitnorm =    0.055493
                 energy =   -0.601809
                kinetic =    5.759592
    potential(screened) =   -6.361401
       potential(ionic) =  -14.486952

   izeta = 4
                 rmatch =    2.004519
              splitnorm =    0.336744
                 energy =    0.137909
                kinetic =    9.626817
    potential(screened) =   -9.488908
       potential(ionic) =  -18.577571

SPLIT: Orbitals with angular momentum L= 2

SPLIT: Basis orbitals for state 3d
Charge confinement: Q:     6.0000

   izeta = 1
                 lambda =    1.000000
                     rc =   10.181049
                 energy =    2.007653
                kinetic =    3.859620
    potential(screened) =   -1.851967
       potential(ionic) =   -7.803212

   izeta = 2
                 rmatch =    2.004519
              splitnorm =    0.637208
                 energy =    6.650039
                kinetic =   11.560126
    potential(screened) =   -4.910087
       potential(ionic) =  -13.161977

   izeta = 3
                 rmatch =    2.990543
              splitnorm =    0.263953
                 energy =    3.559882
                kinetic =    6.528543
    potential(screened) =   -2.968661
       potential(ionic) =  -10.107962

SPLIT: Orbitals with angular momentum L= 3

SPLIT: Basis orbitals for state 4f
Charge confinement: Q:    17.0000

   izeta = 1
                 lambda =    1.000000
                     rc =   10.181049
                 energy =    4.609453
                kinetic =    6.179676
    potential(screened) =   -1.570223
       potential(ionic) =   -7.410991

   izeta = 2
                 rmatch =    1.725262
              splitnorm =    0.752552
                 energy =   15.780374
                kinetic =   20.445907
    potential(screened) =   -4.665533
       potential(ionic) =  -12.986389
atom: Total number of Sankey-type orbitals: 45

atm_pop: Valence configuration (for local Pseudopot. screening):
 2s( 2.00)                                                            
 2p( 4.00)                                                            
 3d( 0.00)                                                            
 4f( 0.00)                                                            
Vna: chval, zval:    6.00000   6.00000

Vna:  Cut-off radius for the neutral-atom potential:  10.181049
comcore: Pseudo-core radius Rcore=  1.377587

atom: _________________________________________________________________________

<basis_specs>
===============================================================================
H                    Z=   1    Mass=  1.0100        Charge= 0.17977+309
Lmxo=2 Lmxkb= 3    BasisType=split      Semic=F
L=0  Nsemic=0  Cnfigmx=1
          n=1  nzeta=4  polorb=0
            splnorm:   0.15000    
               vcte:    50.000    
               rinn:    9.0000    
               qcoe:    0.0000    
               qyuk:    0.0000    
               qwid:   0.10000E-01
                rcs:    10.000      5.0000      3.5000      2.0000    
            lambdas:    1.0000      1.0000      1.0000      1.0000    
L=1  Nsemic=0  Cnfigmx=2
          n=1  nzeta=3  polorb=0
            splnorm:   0.15000    
               vcte:    50.000    
               rinn:    9.0000    
               qcoe:    3.5000    
               qyuk:    0.0000    
               qwid:   0.10000E-01
                rcs:    10.000      2.0000      4.0000    
            lambdas:    1.0000      1.0000      1.0000    
L=2  Nsemic=0  Cnfigmx=3
          n=1  nzeta=2  polorb=0
            splnorm:   0.15000    
               vcte:    50.000    
               rinn:    9.0000    
               qcoe:    16.000    
               qyuk:   0.80000    
               qwid:   0.10000E-01
                rcs:    10.000      2.0000    
            lambdas:    1.0000      1.0000    
-------------------------------------------------------------------------------
L=0  Nkbl=1  erefs: 0.17977+309
L=1  Nkbl=1  erefs: 0.17977+309
L=2  Nkbl=1  erefs: 0.17977+309
L=3  Nkbl=1  erefs: 0.17977+309
===============================================================================
</basis_specs>

atom: Called for H                     (Z =   1)

read_vps: Pseudopotential generation method:
read_vps: ATM 3.2.2 Troullier-Martins                       
Total valence charge:    0.60000

atom: Pseudopotential generated from an ionic configuration
atom: with net charge 0.40

xc_check: Exchange-correlation functional:
xc_check: GGA Perdew, Burke & Ernzerhof 1996
xc_check: WARNING: Pseudopotential generated with GGA revPBE functional
V l=0 = -2*Zval/r beyond r=  1.2343
V l=1 = -2*Zval/r beyond r=  1.2189
V l=2 = -2*Zval/r beyond r=  1.2189
V l=3 = -2*Zval/r beyond r=  1.2038
All V_l potentials equal beyond r=  1.2343
This should be close to max(r_c) in ps generation
All pots = -2*Zval/r beyond r=  1.2343

VLOCAL1: 99.0% of the norm of Vloc inside     28.493 Ry
VLOCAL1: 99.9% of the norm of Vloc inside     64.935 Ry
atom: Maximum radius for 4*pi*r*r*local-pseudopot. charge    1.45251
atom: Maximum radius for r*vlocal+2*Zval:    1.21892
GHOST: No ghost state for L =  0
GHOST: No ghost state for L =  1
GHOST: No ghost state for L =  2
GHOST: No ghost state for L =  3

KBgen: Kleinman-Bylander projectors: 
   l= 0   rc=  1.364359   el= -0.835481   Ekb= -2.050473   kbcos= -0.374935
   l= 1   rc=  1.434438   el= -0.083696   Ekb= -0.439790   kbcos= -0.040392
   l= 2   rc=  1.470814   el= -0.018512   Ekb= -0.135383   kbcos= -0.004767
   l= 3   rc=  1.508111   el= -0.010355   Ekb= -0.058408   kbcos= -0.000784

KBgen: Total number of  Kleinman-Bylander projectors:   16
atom: -------------------------------------------------------------------------

atom: SANKEY-TYPE ORBITALS:
atom: Selected multiple-zeta basis: split     

atom: basis set generated from the ionic configuration used
atom: to generate the pseudopotential

SPLIT: Orbitals with angular momentum L= 0

SPLIT: Basis orbitals for state 1s

   izeta = 1
                 lambda =    1.000000
                     rc =    9.971704
                 energy =   -0.835496
                kinetic =    1.039073
    potential(screened) =   -1.874569
       potential(ionic) =   -2.037700

   izeta = 2
                 rmatch =    5.075940
              splitnorm =    0.029735
                 energy =   -0.816789
* WARNING: effective split_norm is quite small. Orbitals will be very similar.
                kinetic =    1.252128
    potential(screened) =   -2.068916
       potential(ionic) =   -2.226196

   izeta = 3
                 rmatch =    3.487864
              splitnorm =    0.176430
                 energy =   -0.691872
                kinetic =    1.782572
    potential(screened) =   -2.474444
       potential(ionic) =   -2.615176

   izeta = 4
                 rmatch =    2.011274
              splitnorm =    0.598000
                 energy =    0.301433
                kinetic =    3.884637
    potential(screened) =   -3.583203
       potential(ionic) =   -3.672637

SPLIT: Orbitals with angular momentum L= 1

SPLIT: Basis orbitals for state 2p
Charge confinement: Q:     3.5000

   izeta = 1
                 lambda =    1.000000
                     rc =    9.971704
                 energy =    0.711778
                kinetic =    1.888566
    potential(screened) =   -1.176788
       potential(ionic) =   -1.368090

   izeta = 2
                 rmatch =    2.011274
              splitnorm =    0.691729
                 energy =    4.504307
                kinetic =    6.792143
    potential(screened) =   -2.287836
       potential(ionic) =   -2.425880

   izeta = 3
                 rmatch =    4.052721
              splitnorm =    0.089367
                 energy =    1.150580
                kinetic =    2.529067
    potential(screened) =   -1.378487
       potential(ionic) =   -1.566684

SPLIT: Orbitals with angular momentum L= 2

SPLIT: Basis orbitals for state 3d
Charge confinement: Q:    16.0000

   izeta = 1
                 lambda =    1.000000
                     rc =    9.971704
                 energy =    3.555650
                kinetic =    4.803510
    potential(screened) =   -1.247860
       potential(ionic) =   -1.438034

   izeta = 2
                 rmatch =    2.011274
              splitnorm =    0.525433
                 energy =    9.861824
                kinetic =   11.896576
    potential(screened) =   -2.034751
       potential(ionic) =   -2.186933
atom: Total number of Sankey-type orbitals: 23

atm_pop: Valence configuration (for local Pseudopot. screening):
 1s( 1.00)                                                            
 2p( 0.00)                                                            
 3d( 0.00)                                                            
Vna: chval, zval:    1.00000   1.00000

Vna:  Cut-off radius for the neutral-atom potential:   9.971704

atom: _________________________________________________________________________

prinput: Basis input ----------------------------------------------------------

PAO.BasisType split     

%block ChemicalSpeciesLabel
    1    8 O                       # Species index, atomic number, species label
    2    1 H                       # Species index, atomic number, species label
%endblock ChemicalSpeciesLabel

%block PAO.Basis                 # Define Basis set
O                     4                    # Species label, number of l-shells
 n=2   0   4                         # n, l, Nzeta 
  10.181      5.056      3.563      2.005   
   1.000      1.000      1.000      1.000   
 n=2   1   4                         # n, l, Nzeta 
  10.181      5.056      3.563      2.005   
   1.000      1.000      1.000      1.000   
 n=3   2   3                         # n, l, Nzeta 
  10.181      2.005      2.991   
   1.000      1.000      1.000   
 n=4   3   2                         # n, l, Nzeta 
  10.181      1.725   
   1.000      1.000   
H                     3   0.400            # Label, l-shells, ionic net charge
 n=1   0   4                         # n, l, Nzeta 
   9.972      5.076      3.488      2.011   
   1.000      1.000      1.000      1.000   
 n=2   1   3                         # n, l, Nzeta 
   9.972      2.011      4.053   
   1.000      1.000      1.000   
 n=3   2   2                         # n, l, Nzeta 
   9.972      2.011   
   1.000      1.000   
%endblock PAO.Basis

prinput: ----------------------------------------------------------------------

coor:   Atomic-coordinates input format  =     Cartesian coordinates
coor:                                          (in Angstroms)

siesta: Atomic coordinates (Bohr) and species
siesta:      1.17163  22.71452   5.02667  1        1
siesta:      0.86927  23.39482   6.67074  2        2
siesta:      2.04091  24.03733   4.13850  2        3
siesta:     17.83902  10.69585   0.22677  1        4
siesta:     18.93506  11.77300   1.15273  2        5
siesta:     17.46108  11.62182  -1.28501  2        6
siesta:     17.27210   2.15429  11.82969  1        7
siesta:     18.00910   0.81258  12.77455  2        8
siesta:     15.51466   2.05980  12.18874  2        9
siesta:     18.29256  18.36815  10.43129  1       10
siesta:     17.63115  17.68784   8.90061  2       11
siesta:     17.00754  17.99020  11.67851  2       12
siesta:      4.66763   5.70698   6.59515  1       13
siesta:      5.08337   5.80146   4.83770  2       14
siesta:      2.87238   5.80146   6.65184  2       15
siesta:     20.65471   8.63605  15.42017  1       16
siesta:     19.29411   7.54001  15.89260  2       17
siesta:     21.14604   8.08803  13.77611  2       18
siesta:     15.85481   6.33059   6.97309  1       19
siesta:     16.59180   7.78567   6.21720  2       20
siesta:     17.08313   5.02667   6.70853  2       21
siesta:     10.33681  13.36037   4.87550  1       22
siesta:     11.22498  11.94307   4.17630  2       23
siesta:      8.59826  12.94463   4.66763  2       24
siesta:      1.71965   9.69430  20.78700  1       25
siesta:      1.54958   9.01400  19.12404  2       26
siesta:      2.83459  11.11159  20.57913  2       27
siesta:      5.27234  13.66273  18.80278  1       28
siesta:      6.25500  13.17140  17.36659  2       29
siesta:      3.81725  14.49421  18.08469  2       30
siesta:      9.03289  23.11136   1.17163  1       31
siesta:      9.42974  24.56645   2.17319  2       32
siesta:      9.41084  21.69406   2.24877  2       33
siesta:     15.91150   6.06602  15.85481  1       34
siesta:     14.79656   7.38883  15.30679  2       35
siesta:     16.04378   4.96998  14.41862  2       36
siesta:     22.97908  15.21230  11.81079  1       37
siesta:     21.18384  15.32568  11.60292  2       38
siesta:     23.54600  14.17295  10.45019  2       39
siesta:      6.74632   7.59670   0.83148  1       40
siesta:      8.22031   6.68963   0.35905  2       41
siesta:      5.63139   7.44552  -0.60471  2       42
siesta:     11.39505  11.03600  19.01065  1       43
siesta:     12.83125  10.80924  20.06890  2       44
siesta:     12.01866  10.80924  17.32880  2       45
siesta:     13.22809  13.88949   9.37305  1       46
siesta:     11.92418  13.85170   8.12583  2       47
siesta:     12.85014  15.34458  10.39350  2       48
siesta:      1.02045   0.30236  10.28011  1       49
siesta:      1.79524   1.64406  11.18718  2       50
siesta:      1.73855  -1.19053  10.97931  2       51
siesta:      7.35104  21.59958   8.78723  1       52
siesta:      6.19830  20.73030   9.88327  2       53
siesta:      8.86282  20.61692   8.84392  2       54
siesta:     11.84859  23.05467  14.53200  1       55
siesta:     13.03912  22.41216  15.74142  2       56
siesta:     10.37460  23.45151  15.51466  2       57
siesta:      3.30702   4.36527  12.43440  1       58
siesta:      2.83459   5.68808  13.58714  2       59
siesta:      3.91173   5.23454  10.97931  2       60
siesta:     11.56513  19.02955  10.11004  1       61
siesta:     11.73520  20.23897  11.45174  2       62
siesta:     12.77455  19.55867   8.88172  2       63
siesta:     15.53355   2.39995  21.37281  1       64
siesta:     14.47531   0.98266  20.95707  2       65
siesta:     15.87371   3.21254  19.80434  2       66
siesta:      1.71965  13.64383   7.25655  1       67
siesta:      2.43775  15.30679   7.12427  2       68
siesta:      2.77790  12.62338   6.21720  2       69
siesta:      7.02978  16.21386  12.03756  1       70
siesta:      8.57936  17.02644  11.62182  2       71
siesta:      5.78256  17.51777  11.96197  2       72
siesta:     10.14783  18.65160   3.60938  1       73
siesta:     11.77300  19.33191   4.04402  2       74
siesta:     10.20453  16.95085   4.23299  2       75
siesta:      3.34482  19.97441  20.50354  1       76
siesta:      2.36216  18.76499  19.57757  2       77
siesta:      4.81880  19.04845  21.03266  2       78
siesta:     12.20764  22.18539  20.93817  1       79
siesta:     11.48954  20.73030  20.14449  2       80
siesta:     10.96042  22.69562  22.16650  2       81
siesta:     21.27832  15.30679  20.46574  1       82
siesta:     21.90193  14.75877  22.07201  2       83
siesta:     21.44840  17.12093  20.50354  2       84
siesta:     11.22498  18.31145  17.59336  1       85
siesta:      9.82658  19.12404  16.79967  2       86
siesta:     10.48798  17.30990  18.91617  2       87
siesta:     12.07535   2.68341   4.40306  1       88
siesta:     13.34147   3.77945   5.10226  2       89
siesta:     10.71475   2.72121   5.59359  2       90
siesta:     21.63737   6.93530   0.75589  1       91
siesta:     22.54444   8.06913  -0.32125  2       92
siesta:     19.93662   7.52111   0.71810  2       93
siesta:     22.54444   5.93374   5.97154  1       94
siesta:     22.67672   6.59515   4.28968  2       95
siesta:     22.07201   4.19519   5.74477  2       96
siesta:     18.97286   0.73699   1.11494  1       97
siesta:     17.61225   1.36060   0.09449  2       98
siesta:     19.80434   2.22988   1.71965  2       99
siesta:     19.31301  20.48464   5.19675  1      100
siesta:     21.07045  20.71141   5.55580  2      101
siesta:     19.10514  21.16494   3.53379  2      102
siesta:     20.23897  14.58869   2.26767  1      103
siesta:     19.82323  13.92729   3.89284  2      104
siesta:     19.67206  16.30834   2.34326  2      105
siesta:      8.63605   3.25033   8.52267  1      106
siesta:      8.27700   1.49288   8.74944  2      107
siesta:      7.10537   3.94953   7.89906  2      108
siesta:     22.33657  19.67206   0.24566  1      109
siesta:     21.52399  21.20274  -0.32125  2      110
siesta:     24.03733  20.16339   0.60471  2      111
siesta:     16.79967  19.69095  21.88304  1      112
siesta:     15.08002  20.18228  21.97752  2      113
siesta:     16.81857  17.95241  22.37437  2      114
siesta:      6.17941  20.59802  16.13827  1      115
siesta:      6.46287  22.27988  15.53355  2      116
siesta:      5.40462  20.82479  17.76343  2      117
siesta:      3.06136  15.70363   0.58582  1      118
siesta:      2.05980  17.00754  -0.18897  2      119
siesta:      3.64717  16.45952   2.13539  2      120
siesta:     22.56334   3.06136  21.22163  1      121
siesta:     22.26098   4.61093  22.07201  2      122
siesta:     20.91928   2.36216  20.93817  2      123
siesta:      3.06136   2.32436   1.22832  1      124
siesta:      2.09760   1.98421  -0.26456  2      125
siesta:      4.78101   2.15429   0.73699  2      126
siesta:      5.57469  11.88638   3.38261  1      127
siesta:      5.66918  10.26122   2.60782  2      128
siesta:      4.85660  12.94463   2.11649  2      129
siesta:     14.28634  20.80589   5.36682  1      130
siesta:     16.06268  21.03266   5.17785  2      131
siesta:     13.58714  22.46885   5.19675  2      132
siesta:     13.60603  15.93040   1.00156  1      133
siesta:     13.41706  14.17295   1.32281  2      134
siesta:     12.03756  16.66739   1.51178  2      135
siesta:     17.30990  11.77300  18.23586  1      136
siesta:     18.27366  10.75255  17.08313  2      137
siesta:     18.23586  13.32257  18.34925  2      138
siesta:     12.20764   5.55580  11.03600  1      139
siesta:     13.37927   5.85815   9.67540  2      140
siesta:     10.77144   4.78101  10.22342  2      141
siesta:      8.74944  16.34614  21.44840  1      142
siesta:      7.38883  15.25010  20.95707  2      143
siesta:     10.11004  15.23120  21.82635  2      144
siesta:     16.59180  21.63737  17.08313  1      145
siesta:     16.96975  20.74920  18.59491  2      146
siesta:     18.19807  21.82635  16.25165  2      147
siesta:     20.16339  21.80745  13.58714  1      148
siesta:     21.48619  22.37437  12.49109  2      149
siesta:     19.29411  20.54133  12.62338  2      150
siesta:     15.32568  17.53667  14.53200  1      151
siesta:     14.38082  16.66739  15.79812  2      152
siesta:     15.89260  19.04845  15.34458  2      153
siesta:     17.72564  12.41551   7.33214  1      154
siesta:     16.25165  12.94463   8.25811  2      155
siesta:     18.80278  11.65961   8.56046  2      156
siesta:      7.57780   2.68341  14.73987  1      157
siesta:      8.88172   3.53379  13.81390  2      158
siesta:      6.02823   3.23143  13.96508  2      159
siesta:     19.25632   1.88973   7.14317  1      160
siesta:     18.63271   1.96532   8.84392  2      161
siesta:     19.33191   0.13228   6.76522  2      162
siesta:     22.03422   9.05179  10.01555  1      163
siesta:     22.05311   7.65339   8.86282  2      164
siesta:     23.58379   9.92107   9.67540  2      165
siesta:      6.91640  10.99821  14.11626  1      166
siesta:      6.33059  12.32102  13.02022  2      167
siesta:      8.73054  11.07380  13.96508  2      168
siesta:     11.35726   5.08337  22.73341  1      169
siesta:     12.83125   4.10071  22.35547  2      170
siesta:     10.58247   5.36682  21.12715  2      171
siesta:     12.26433   9.92107  13.94618  1      172
siesta:     11.96197   8.63605  12.71786  2      173
siesta:     12.96353  11.30057  13.00132  2      174
siesta:     12.98242  10.03445   1.77634  1      175
siesta:     12.58558   8.33370   1.30391  2      176
siesta:     14.75877  10.18563   1.49288  2      177
siesta:      8.37149   6.36838  18.97286  1      178
siesta:      8.44708   5.31013  17.49887  2      179
siesta:      9.25966   7.88016  18.48153  2      180
siesta:      2.83459  19.25632  12.32102  1      181
siesta:      1.75745  17.83902  11.98087  2      182
siesta:      3.13695  19.19963  14.09736  2      183
siesta:      2.66451   8.14472  15.70363  1      184
siesta:      4.42196   8.61715  15.68473  2      185
siesta:      1.77634   9.73209  15.68473  2      186
siesta:      0.96376  16.06268  16.61070  1      187
siesta:     -0.41574  15.77922  17.74454  2      188
siesta:      0.26456  15.72253  14.96664  2      189
siesta:      4.23299  18.48153   5.36682  1      190
siesta:      5.89595  19.08624   4.96998  2      191
siesta:      3.15584  19.91772   5.15895  2      192

siesta: System type = bulk      

initatomlists: Number of atoms, orbitals, and projectors:    192  5824  3072

siesta: ******************** Simulation parameters ****************************
siesta:
siesta: The following are some of the parameters of the simulation.
siesta: A complete list of the parameters used, including default values,
siesta: can be found in file out.fdf
siesta:
redata: Non-Collinear-spin run           =     F
redata: SpinPolarized (Up/Down) run      =     F
redata: Number of spin components        =     1
redata: Long output                      =     F
redata: Number of Atomic Species         =        2
redata: Charge density info will appear in .RHO file
redata: Write Mulliken Pop.              =     NO
redata: Mesh Cutoff                      =   150.0000  Ry
redata: Net charge of the system         =     0.0000 |e|
redata: Min. number of SCF Iter          =        0
redata: Max. number of SCF Iter          =       50
redata: Mix DM or H after convergence    =     F
redata: Recompute H after scf cycle      =     F
redata: Performing Pulay mixing using    =     3 iterations
redata: Mix DM in first SCF step ?       =     F
redata: Write Pulay info on disk?        =     F
redata: Discard 1st Pulay DM after  kick =     F
redata: New DM Mixing Weight             =     0.3000
redata: New DM Occupancy tolerance       = 0.000000000001
redata: No kicks to SCF
redata: DM Mixing Weight for Kicks       =     0.5000
redata: DM Tolerance for SCF             =     0.000100
redata: Require (free) Energy convergence in SCF =     F
redata: DM (free)Energy tolerance for SCF =     0.000010 eV
redata: Require Harris convergence for SCF =     F
redata: DM Harris energy tolerance for SCF =     0.000010 eV
redata: Using Saved Data (generic)   =     F
redata: Use continuation files for DM    =     F
redata: Neglect nonoverlap interactions  =     F
redata: Method of Calculation            =     old SLEPc
redata: Fix the spin of the system       =     F
redata: Dynamics option                  =     Single-point calculation
redata: ***********************************************************************
Total number of electrons:   512.000000
Total ionic charge:   512.000000

* ProcessorY, Blocksize:    8  91


* Orbital distribution balance (max,min):    91    91

 Kpoints in:            1 . Kpoints trimmed:            1

siesta: k-grid: Number of k-points =     1
siesta: k-grid: Cutoff (effective) =     6.209 Ang
siesta: k-grid: Supercell and displacements
siesta: k-grid:    1   0   0      0.000
siesta: k-grid:    0   1   0      0.000
siesta: k-grid:    0   0   1      0.000

                     ====================================
                        Single-point calculation
                     ====================================

outcell: Unit cell vectors (Ang):
       12.418275    0.000000    0.000000
        0.000000   12.418275    0.000000
        0.000000    0.000000   12.418275

outcell: Cell vector modules (Ang)   :   12.418275   12.418275   12.418275
outcell: Cell angles (23,13,12) (deg):     90.0000     90.0000     90.0000
outcell: Cell volume (Ang**3)        :   1915.0663
 Folding of H and S is implicitly performed
New_DM. Step:     1
Initializing Density Matrix...
New grid distribution:   1
           1       1:   48    1:    6    1:    6
           2       1:   48    1:    6    7:   12
           3       1:   48    1:    6   13:   18
           4       1:   48    1:    6   19:   24
           5       1:   48    1:    6   25:   30
           6       1:   48    1:    6   31:   36
           7       1:   48    1:    6   37:   42
           8       1:   48    1:    6   43:   48
           9       1:   48    7:   12    1:    6
          10       1:   48    7:   12    7:   12
          11       1:   48    7:   12   13:   18
          12       1:   48    7:   12   19:   24
          13       1:   48    7:   12   25:   30
          14       1:   48    7:   12   31:   36
          15       1:   48    7:   12   37:   42
          16       1:   48    7:   12   43:   48
          17       1:   48   13:   18    1:    6
          18       1:   48   13:   18    7:   12
          19       1:   48   13:   18   13:   18
          20       1:   48   13:   18   19:   24
          21       1:   48   13:   18   25:   30
          22       1:   48   13:   18   31:   36
          23       1:   48   13:   18   37:   42
          24       1:   48   13:   18   43:   48
          25       1:   48   19:   24    1:    6
          26       1:   48   19:   24    7:   12
          27       1:   48   19:   24   13:   18
          28       1:   48   19:   24   19:   24
          29       1:   48   19:   24   25:   30
          30       1:   48   19:   24   31:   36
          31       1:   48   19:   24   37:   42
          32       1:   48   19:   24   43:   48
          33       1:   48   25:   30    1:    6
          34       1:   48   25:   30    7:   12
          35       1:   48   25:   30   13:   18
          36       1:   48   25:   30   19:   24
          37       1:   48   25:   30   25:   30
          38       1:   48   25:   30   31:   36
          39       1:   48   25:   30   37:   42
          40       1:   48   25:   30   43:   48
          41       1:   48   31:   36    1:    6
          42       1:   48   31:   36    7:   12
          43       1:   48   31:   36   13:   18
          44       1:   48   31:   36   19:   24
          45       1:   48   31:   36   25:   30
          46       1:   48   31:   36   31:   36
          47       1:   48   31:   36   37:   42
          48       1:   48   31:   36   43:   48
          49       1:   48   37:   42    1:    6
          50       1:   48   37:   42    7:   12
          51       1:   48   37:   42   13:   18
          52       1:   48   37:   42   19:   24
          53       1:   48   37:   42   25:   30
          54       1:   48   37:   42   31:   36
          55       1:   48   37:   42   37:   42
          56       1:   48   37:   42   43:   48
          57       1:   48   43:   48    1:    6
          58       1:   48   43:   48    7:   12
          59       1:   48   43:   48   13:   18
          60       1:   48   43:   48   19:   24
          61       1:   48   43:   48   25:   30
          62       1:   48   43:   48   31:   36
          63       1:   48   43:   48   37:   42
          64       1:   48   43:   48   43:   48

InitMesh: MESH =    96 x    96 x    96 =      884736
InitMesh: (bp) =    48 x    48 x    48 =      110592
InitMesh: Mesh cutoff (required, used) =   150.000   165.166 Ry
ExtMesh (bp) on 0 =   132 x    90 x    90 =     1069200
New grid distribution:   2
           1      37:   48   13:   25   13:   24
           2      25:   36   26:   37   37:   48
           3      25:   36    1:   12    1:   12
           4      25:   35    1:   12   25:   36
           5       1:   12   26:   37   25:   36
           6      13:   24    1:   12    1:   12
           7       1:   13    1:   13   37:   48
           8      14:   24    1:   13   37:   48
           9      13:   24   13:   25    1:   12
          10      13:   24   14:   25   37:   48
          11      25:   36    1:   12   13:   24
          12      25:   36   38:   48    1:   12
          13      13:   24   26:   37   25:   36
          14      37:   48    1:   12    1:   12
          15      36:   48    1:   12   37:   48
          16      37:   48   38:   48    1:   12
          17      37:   48   13:   25    1:   12
          18       1:   12    1:   12    1:   12
          19       1:   12   13:   25   13:   24
          20      14:   24    1:   12   25:   36
          21       1:   12   13:   25   25:   36
          22      37:   48    1:   12   13:   24
          23      36:   48   13:   25   37:   48
          24       1:   12   38:   48    1:   12
          25      25:   36   13:   25    1:   12
          26       1:   12   26:   37   13:   24
          27      37:   48   26:   37    1:   12
          28      25:   35    1:   12   37:   48
          29      13:   24   13:   25   25:   36
          30      13:   24   38:   48    1:   12
          31       1:   12   14:   25   37:   48
          32      25:   35   13:   25   37:   48
          33       1:   12   26:   37    1:   12
          34      14:   24   38:   48   25:   36
          35      25:   36   13:   25   13:   24
          36      37:   48   26:   37   13:   24
          37      37:   48   13:   25   25:   36
          38      25:   36   26:   37   25:   36
          39      36:   48   38:   48   37:   48
          40      25:   35   38:   48   25:   36
          41       1:   12   13:   25    1:   12
          42      13:   24   26:   37    1:   12
          43      25:   36   26:   37   13:   24
          44      25:   35   38:   48   13:   24
          45       1:   13    1:   12   25:   36
          46      37:   48   26:   37   25:   36
          47       1:   13   26:   36   37:   48
          48      14:   24   26:   36   37:   48
          49      25:   36   13:   25   25:   36
          50      25:   36   26:   37    1:   12
          51      13:   24   26:   37   13:   24
          52      13:   24   38:   48   13:   24
          53      36:   48    1:   12   25:   36
          54      36:   48   38:   48   25:   36
          55      37:   48   26:   37   37:   48
          56      14:   24   37:   48   37:   48
          57      13:   24   13:   25   13:   24
          58       1:   12    1:   12   13:   24
          59      36:   48   38:   48   13:   24
          60       1:   12   38:   48   13:   24
          61      13:   24    1:   12   13:   24
          62       1:   13   38:   48   25:   36
          63       1:   13   37:   48   37:   48
          64      25:   35   38:   48   37:   48
New grid distribution:   3
           1      25:   36   13:   24   37:   48
           2      25:   36   37:   48   37:   48
           3      25:   36   13:   24    1:   12
           4      25:   36   37:   48    1:   12
           5      25:   36    1:   12   25:   36
           6      37:   48   37:   48   37:   48
           7      37:   48   13:   24    1:   12
           8      37:   48   37:   48    1:   12
           9      37:   48   13:   24   37:   48
          10      25:   36   25:   36   37:   48
          11      25:   36    1:   12    1:   12
          12      25:   36   25:   36    1:   12
          13      37:   48    1:   12   25:   36
          14      37:   48   25:   36   37:   48
          15      37:   48    1:   12    1:   12
          16      37:   48   25:   36    1:   12
          17      25:   36    1:   12   37:   48
          18       1:   12   37:   48   25:   36
          19      25:   36   13:   24   13:   24
          20       1:   12   37:   48    1:   12
          21      25:   36   13:   24   25:   36
          22      13:   24   37:   48   25:   36
          23      25:   36    1:   12   13:   24
          24      13:   24   37:   48    1:   12
          25      37:   48    1:   12   37:   48
          26       1:   12   25:   36   25:   36
          27      37:   48   13:   24   13:   24
          28       1:   12   25:   36    1:   12
          29      37:   48   13:   24   25:   36
          30      13:   24   25:   36   25:   36
          31      37:   48    1:   12   13:   24
          32      13:   24   25:   36    1:   12
          33       1:   12   13:   24   25:   36
          34       1:   12   37:   48   37:   48
          35       1:   12   13:   24    1:   12
          36      25:   36   25:   36   13:   24
          37      13:   24   13:   24   25:   36
          38      25:   36   25:   36   25:   36
          39      13:   24   13:   24    1:   12
          40       1:   12   37:   48   13:   24
          41       1:   12    1:   12   25:   36
          42      13:   24   37:   48   37:   48
          43       1:   12    1:   12    1:   12
          44      37:   48   25:   36   13:   24
          45      13:   24    1:   12   25:   36
          46      37:   48   25:   36   25:   36
          47      13:   24    1:   12    1:   12
          48      13:   24   37:   48   13:   24
          49       1:   12   13:   24   37:   48
          50       1:   12   25:   36   37:   48
          51       1:   12   13:   24   13:   24
          52      25:   36   37:   48   13:   24
          53      13:   24   13:   24   37:   48
          54      25:   36   37:   48   25:   36
          55      13:   24   13:   24   13:   24
          56       1:   12   25:   36   13:   24
          57       1:   12    1:   12   37:   48
          58      13:   24   25:   36   37:   48
          59       1:   12    1:   12   13:   24
          60      37:   48   37:   48   13:   24
          61      13:   24    1:   12   37:   48
          62      37:   48   37:   48   25:   36
          63      13:   24    1:   12   13:   24
          64      13:   24   25:   36   13:   24
Setting up quadratic distribution...
ExtMesh (bp) on 0 =    96 x    97 x    96 =      893952
PhiOnMesh: Number of (b)points on node 0 =                 1872
PhiOnMesh: nlist on node 0 =              1423067
 QETSC: Update                =1609221156
QETSC: Number of ranks       =          64
QETSC: Number of slices      =          64
QETSC: Number of ranks/slice =           1
QETSC: Number of evals/slice =   4.00
QETSC: Number of req. evals  =         256
QETSC: Number of rows (all)  =        5824
QETSC: Number of rows (max)  =          91
QETSC: Number of rows (min)  =          91
QETSC: Number of nonzeros    =    17387592
QETSC: Nonzero % (all)       =  51.26
QETSC: Nonzero % (max)       =  53.33
QETSC: Nonzero % (min)       =  48.88
QETSC: Global evecs          =      T
QETSC: Bin type given        =           2
QETSC: Bin buffer            =   0.10
QETSC: Diff thresh           =   0.01
QETSC: Infinity type         =           2
QETSC: Inertia type          =           1
 QETSC: Estimated eigenvalues         =
-2.2000000000000002E+00
-2.1973544973544974E+00
-2.1947089947089951E+00
-2.1920634920634923E+00
-2.1894179894179895E+00
-2.1867724867724871E+00
-2.1841269841269844E+00
-2.1814814814814816E+00
-2.1788359788359792E+00
-2.1761904761904765E+00
-2.1735449735449737E+00
-2.1708994708994713E+00
-2.1682539682539685E+00
-2.1673469387755104E+00
-2.1664399092970523E+00
-2.1655328798185942E+00
-2.1646258503401365E+00
-2.1637188208616784E+00
-2.1628117913832203E+00
-2.1619047619047622E+00
-2.1609977324263041E+00
-2.1600907029478460E+00
-2.1591836734693879E+00
-2.1582766439909302E+00
-2.1573696145124721E+00
-2.1564625850340140E+00
-2.1555555555555559E+00
-2.1546485260770978E+00
-2.1537414965986397E+00
-2.1528344671201816E+00
-2.1519274376417239E+00
-2.1510204081632658E+00
-2.1501133786848077E+00
-2.1492063492063496E+00
-2.1482993197278915E+00
-2.1473922902494333E+00
-2.1464852607709752E+00
-2.1455782312925176E+00
-2.1446712018140595E+00
-2.1437641723356013E+00
-2.1428571428571432E+00
-2.1419501133786851E+00
-2.1410430839002270E+00
-2.1401360544217689E+00
-2.1392290249433112E+00
-2.1383219954648531E+00
-2.1374149659863950E+00
-2.1365079365079369E+00
-2.1346405228758174E+00
-2.1327731092436979E+00
-2.1309056956115784E+00
-2.1290382819794589E+00
-2.1271708683473394E+00
-2.1253034547152199E+00
-2.1234360410831004E+00
-2.1215686274509808E+00
-2.1197012138188609E+00
-2.1178338001867414E+00
-2.1159663865546219E+00
-2.1140989729225024E+00
-2.1122315592903829E+00
-2.1103641456582634E+00
-2.1084967320261438E+00
-2.1066293183940243E+00
-1.2793650793650797E+00
-1.2761904761904765E+00
-1.2730158730158734E+00
-1.2698412698412702E+00
-1.2666666666666671E+00
-1.2634920634920639E+00
-1.2603174603174605E+00
-1.2571428571428573E+00
-1.2539682539682542E+00
-1.2507936507936510E+00
-1.2476190476190478E+00
-1.2464432686654912E+00
-1.2452674897119345E+00
-1.2440917107583775E+00
-1.2429159318048209E+00
-1.2417401528512642E+00
-1.2405643738977075E+00
-1.2393885949441508E+00
-1.2382128159905941E+00
-1.2370370370370372E+00
-1.2358612580834805E+00
-1.2346854791299238E+00
-1.2335097001763671E+00
-1.2323339212228104E+00
-1.2311581422692535E+00
-1.2299823633156968E+00
-1.2288065843621401E+00
-1.2276308054085834E+00
-1.2264550264550267E+00
-1.2252792475014698E+00
-1.2241034685479131E+00
-1.2229276895943564E+00
-1.2217519106407997E+00
-1.2205761316872430E+00
-1.2194003527336863E+00
-1.2182245737801294E+00
-1.2170487948265727E+00
-1.2158730158730160E+00
-1.2146031746031747E+00
-1.2133333333333334E+00
-1.2120634920634923E+00
-1.2107936507936510E+00
-1.2095238095238097E+00
-1.2082539682539684E+00
-1.2069841269841270E+00
-1.2057142857142860E+00
-1.2044444444444447E+00
-1.2031746031746033E+00
-1.2019047619047620E+00
-1.2006349206349207E+00
-1.1993650793650796E+00
-1.1980952380952383E+00
-1.1968253968253970E+00
-1.1955555555555557E+00
-1.1942857142857144E+00
-1.1930158730158733E+00
-1.1917460317460320E+00
-1.1904761904761907E+00
-1.1892063492063494E+00
-1.1879365079365081E+00
-1.1866666666666670E+00
-1.1853968253968257E+00
-1.1841269841269844E+00
-1.1682539682539685E+00
-1.0888888888888890E+00
-1.0730158730158732E+00
-1.0571428571428574E+00
-1.0542568542568544E+00
-1.0513708513708517E+00
-1.0484848484848488E+00
-1.0455988455988459E+00
-1.0427128427128429E+00
-1.0398268398268402E+00
-1.0369408369408373E+00
-1.0340548340548343E+00
-1.0311688311688314E+00
-1.0282828282828287E+00
-1.0253968253968258E+00
-1.0235294117647062E+00
-1.0216619981325867E+00
-1.0197945845004672E+00
-1.0179271708683477E+00
-1.0160597572362282E+00
-1.0141923436041087E+00
-1.0123249299719892E+00
-1.0104575163398697E+00
-1.0085901027077500E+00
-1.0067226890756305E+00
-1.0048552754435109E+00
-1.0029878618113914E+00
-1.0011204481792719E+00
-9.9925303454715242E-01
-9.9738562091503291E-01
-9.9551820728291340E-01
-9.9365079365079390E-01
-9.9206349206349231E-01
-9.9047619047619073E-01
-9.8888888888888915E-01
-9.8730158730158757E-01
-9.8571428571428599E-01
-9.8412698412698429E-01
-9.8253968253968271E-01
-9.8095238095238113E-01
-9.7936507936507955E-01
-9.7777777777777797E-01
-9.7619047619047639E-01
-9.7460317460317480E-01
-9.7301587301587322E-01
-9.7142857142857164E-01
-9.6984126984126995E-01
-9.6825396825396837E-01
-9.6666666666666679E-01
-9.6507936507936520E-01
-9.6349206349206362E-01
-9.6190476190476204E-01
-9.5963718820861688E-01
-9.5736961451247182E-01
-9.5510204081632666E-01
-9.5283446712018161E-01
-9.5056689342403644E-01
-9.4829931972789139E-01
-9.4603174603174622E-01
-9.4376417233560106E-01
-9.4149659863945601E-01
-9.3922902494331084E-01
-9.3696145124716579E-01
-9.3469387755102062E-01
-9.3242630385487557E-01
-8.9841269841269877E-01
-8.8253968253968285E-01
-8.6666666666666692E-01
-8.6591080876795190E-01
-8.6515495086923688E-01
-8.6439909297052175E-01
-8.6364323507180674E-01
-8.6288737717309172E-01
-8.6213151927437670E-01
-8.6137566137566157E-01
-8.6061980347694655E-01
-8.5986394557823154E-01
-8.5910808767951652E-01
-8.5835222978080139E-01
-8.5759637188208637E-01
-8.5684051398337135E-01
-8.5608465608465634E-01
-8.5532879818594121E-01
-8.5457294028722619E-01
-8.5381708238851117E-01
-8.5306122448979615E-01
-8.5230536659108103E-01
-8.5154950869236601E-01
-8.5079365079365099E-01
-8.5003779289493597E-01
-8.4928193499622096E-01
-8.4852607709750583E-01
-8.4777021919879081E-01
-8.4701436130007579E-01
-8.4625850340136077E-01
-8.4550264550264564E-01
-8.4474678760393063E-01
-8.4399092970521561E-01
-8.4323507180650059E-01
-8.4247921390778546E-01
-8.4172335600907044E-01
-8.4096749811035543E-01
-8.4021164021164041E-01
-8.3945578231292528E-01
-8.3869992441421026E-01
-8.3794406651549525E-01
-8.3718820861678023E-01
-8.3643235071806510E-01
-8.3567649281935008E-01
-8.3492063492063506E-01
-8.3333333333333348E-01
-8.3174603174603190E-01
-8.3015873015873032E-01
-8.2857142857142874E-01
-8.2698412698412715E-01
-8.2539682539682557E-01
-8.2380952380952399E-01
-8.2222222222222241E-01
-8.2063492063492083E-01
-8.1904761904761925E-01
-8.1746031746031766E-01
-8.1587301587301608E-01
-8.1428571428571450E-01
-8.1269841269841292E-01
-8.1111111111111134E-01
-8.0952380952380976E-01
-8.0793650793650817E-01
-8.0634920634920659E-01
-2.0000000000000018E-01
 QETSC: Bins             =
              -Infinity
-2.2000000000000002E+00
-2.1924603174603177E+00
-2.1845238095238098E+00
-2.1765873015873018E+00
-2.1686507936507939E+00
-2.1622222222222227E+00
-2.1558730158730164E+00
-2.1495238095238101E+00
-2.1431746031746037E+00
-2.1368253968253974E+00
-2.1294117647058828E+00
-2.1219421101774048E+00
-2.1144724556489263E+00
-2.1070028011204482E+00
-1.3207282913165270E+00
-1.2733333333333337E+00
-1.2669841269841273E+00
-1.2606349206349208E+00
-1.2542857142857144E+00
-1.2479365079365081E+00
-1.2409171075837744E+00
-1.2338624338624340E+00
-1.2268077601410936E+00
-1.2197530864197532E+00
-1.2136366843033510E+00
-1.2073015873015873E+00
-1.2009523809523810E+00
-1.1946031746031747E+00
-1.1882539682539683E+00
-1.1692380952380956E+00
-1.0928571428571430E+00
-1.0738095238095240E+00
-1.0579365079365082E+00
-1.0489177489177492E+00
-1.0402597402597407E+00
-1.0316017316017319E+00
-1.0239113827349124E+00
-1.0164332399626521E+00
-1.0089635854341739E+00
-1.0014939309056958E+00
-9.9402427637721780E-01
-9.8761904761904784E-01
-9.8126984126984140E-01
-9.7492063492063508E-01
-9.6857142857142864E-01
-9.6222222222222231E-01
-9.5544217687074839E-01
-9.4863945578231312E-01
-9.4183673469387774E-01
-9.3503401360544236E-01
-9.0022675736961488E-01
-8.8333333333333364E-01
-8.6746031746031771E-01
-8.6092214663643252E-01
-8.5487528344671215E-01
-8.4882842025699179E-01
-8.4278155706727143E-01
-8.3673469387755106E-01
-8.3047241118669701E-01
-8.2412698412698426E-01
-8.1777777777777794E-01
-8.1142857142857161E-01
-2.3055555555555574E-01
-2.0000000000000018E-01
QETSC: Started iter            1
QETSC: Bin type used         =           2
QETSC: Buffer used           = 0.00000000000E+00
QETSC: EPS interval          = -Infinity,    -0.200
QETSC: Inertia type          =           1
 QETSC: Eigenvalues         =
-2.1908156804629360E+00
-2.1845295867353514E+00
-2.1823047349542861E+00
-2.1803638546863087E+00
-2.1788157696273442E+00
-2.1785687483051199E+00
-2.1764788478324828E+00
-2.1743070896861076E+00
-2.1735124156331413E+00
-2.1719038296038788E+00
-2.1702615697349890E+00
-2.1684555751973340E+00
-2.1680727029059987E+00
-2.1670521707051318E+00
-2.1645039930990260E+00
-2.1641551440305036E+00
-2.1625651814525648E+00
-2.1613384029489793E+00
-2.1609939345258082E+00
-2.1602508235313613E+00
-2.1590407233275473E+00
-2.1587913703599879E+00
-2.1568396924090112E+00
-2.1561919872691599E+00
-2.1558953808964181E+00
-2.1543468358105646E+00
-2.1533902593392606E+00
-2.1531217703447560E+00
-2.1511702653741653E+00
-2.1501837570575808E+00
-2.1493406562351445E+00
-2.1484945481457065E+00
-2.1472343663492564E+00
-2.1470544317907980E+00
-2.1468094651965246E+00
-2.1442876882937125E+00
-2.1440669330662305E+00
-2.1437044572393638E+00
-2.1430226385180373E+00
-2.1428875174596995E+00
-2.1421554535322587E+00
-2.1413123824590370E+00
-2.1402762926580405E+00
-2.1395070680661079E+00
-2.1381072746716487E+00
-2.1376073220207013E+00
-2.1366062221348030E+00
-2.1360801796892073E+00
-2.1353293451663786E+00
-2.1346316848846394E+00
-2.1341459167399148E+00
-2.1332624109041762E+00
-2.1330733593715236E+00
-2.1322575137378306E+00
-2.1311104824520877E+00
-2.1299151165425467E+00
-2.1289273702082507E+00
-2.1279781482604530E+00
-2.1266697254967424E+00
-2.1265380991716349E+00
-2.1258290656776873E+00
-2.1252385635752189E+00
-2.1234312014314765E+00
-2.1222475859158703E+00
-1.2735014606531136E+00
-1.2731393568912766E+00
-1.2574089078904311E+00
-1.2551718020793277E+00
-1.2534226244444591E+00
-1.2532056033018695E+00
-1.2517255181998548E+00
-1.2503771264393935E+00
-1.2497350945319579E+00
-1.2484106800259422E+00
-1.2457515274949063E+00
-1.2445381339134594E+00
-1.2434803527626936E+00
-1.2428857634694357E+00
-1.2409407751695154E+00
-1.2388762674412899E+00
-1.2385895989088627E+00
-1.2375943514760848E+00
-1.2352151075852866E+00
-1.2342413231777103E+00
-1.2339208671562272E+00
-1.2322925313378230E+00
-1.2303266987163235E+00
-1.2288145952053258E+00
-1.2275623612446547E+00
-1.2251274887760601E+00
-1.2248690398395068E+00
-1.2244020371678299E+00
-1.2225781567993825E+00
-1.2218599877588732E+00
-1.2206331195841782E+00
-1.2200679786324031E+00
-1.2196423885106740E+00
-1.2193211799678476E+00
-1.2181445438425331E+00
-1.2178149500691113E+00
-1.2167762589207152E+00
-1.2156307208779589E+00
-1.2148673697795573E+00
-1.2133604072482953E+00
-1.2131079499641770E+00
-1.2116969066913277E+00
-1.2113744886226154E+00
-1.2094246213203419E+00
-1.2083418560820351E+00
-1.2075954084696818E+00
-1.2058784066834962E+00
-1.2056300202945189E+00
-1.2044671904245630E+00
-1.2025774793637112E+00
-1.2016897772461415E+00
-1.2010983781363562E+00
-1.1994724023887862E+00
-1.1990085774807675E+00
-1.1978267170751371E+00
-1.1973529937522367E+00
-1.1952542421736863E+00
-1.1948885694856992E+00
-1.1897477284833604E+00
-1.1890096161161419E+00
-1.1860339996066063E+00
-1.1852294748509511E+00
-1.1840217449355130E+00
-1.1785980808080783E+00
-1.0645613679235562E+00
-1.0580922514639686E+00
-1.0523611221631353E+00
-1.0512915404290317E+00
-1.0475782238172240E+00
-1.0434645557506963E+00
-1.0412622804637992E+00
-1.0411027770761314E+00
-1.0367735446488262E+00
-1.0331036168982228E+00
-1.0313592351016023E+00
-1.0283201763937568E+00
-1.0272003342498370E+00
-1.0234293831192074E+00
-1.0224458091212734E+00
-1.0194959946041424E+00
-1.0180796293430341E+00
-1.0175747835718327E+00
-1.0149339601520775E+00
-1.0133931193144645E+00
-1.0111210614533732E+00
-1.0102337202791882E+00
-1.0088820797889630E+00
-1.0066628466628182E+00
-1.0057934625827296E+00
-1.0046229509823366E+00
-1.0032980055692131E+00
-1.0011322634660560E+00
-9.9870935387567628E-01
-9.9574694892750304E-01
-9.9270614467927909E-01
-9.9216880942327146E-01
-9.8993116294149508E-01
-9.8871184971097137E-01
-9.8658931830364938E-01
-9.8501096351854800E-01
-9.8345886920650760E-01
-9.8223514727467542E-01
-9.8145609141166612E-01
-9.7869994202613686E-01
-9.7710253493670340E-01
-9.7550294976282736E-01
-9.7476625321699073E-01
-9.7331631632835869E-01
-9.7221904567794182E-01
-9.6865828938630238E-01
-9.6843245861321292E-01
-9.6749111062232351E-01
-9.6555727297215288E-01
-9.6378623140685471E-01
-9.6115989944649538E-01
-9.6074705312931119E-01
-9.5765406495933103E-01
-9.5621130254530629E-01
-9.5422825794258970E-01
-9.5077755015257137E-01
-9.4953485985433461E-01
-9.4684017804602705E-01
-9.4463098615301277E-01
-9.4329327846021305E-01
-9.4113137182982975E-01
-9.3858189338117948E-01
-9.3598480158042519E-01
-9.3087087358876175E-01
-8.6921231118458409E-01
-8.6692008161917211E-01
-8.6436429576703599E-01
-8.6351694040408378E-01
-8.6152161073242473E-01
-8.6075852262157326E-01
-8.5831815698004932E-01
-8.5806579592466903E-01
-8.5632975982977688E-01
-8.5607995544183213E-01
-8.5452365606041569E-01
-8.5388570520288853E-01
-8.5330386298757721E-01
-8.5276886664944984E-01
-8.5185401558424589E-01
-8.5145666829655753E-01
-8.5111403876767011E-01
-8.5006157892978373E-01
-8.4956178929538628E-01
-8.4903109004122546E-01
-8.4888725615757743E-01
-8.4812209984025844E-01
-8.4721747193549157E-01
-8.4670987103045814E-01
-8.4597402721063941E-01
-8.4534216507514137E-01
-8.4427044542126484E-01
-8.4399194276505873E-01
-8.4345847628194526E-01
-8.4250061592584391E-01
-8.4209931801606219E-01
-8.4158204299632899E-01
-8.4139966776259767E-01
-8.4084935037955966E-01
-8.3994647654664878E-01
-8.3985144676153400E-01
-8.3945878610146152E-01
-8.3898233661110555E-01
-8.3826134362656690E-01
-8.3765499643951080E-01
-8.3740285477506182E-01
-8.3687073228623443E-01
-8.3607101703409104E-01
-8.3530542559891818E-01
-8.3464859168676298E-01
-8.3375608317024263E-01
-8.3318420297080797E-01
-8.3235603340946873E-01
-8.3186115577343400E-01
-8.3152186315201271E-01
-8.3062009113825863E-01
-8.2989150191201422E-01
-8.2911145442159917E-01
-8.2892935422057779E-01
-8.2864331424946291E-01
-8.2748534629915926E-01
-8.2690414118628353E-01
-8.2581381808809595E-01
-8.2466425395090759E-01
-8.2239143719689789E-01
-8.2052338153186055E-01
-8.1747449905809189E-01
-8.1680027721702453E-01
-8.1407180019027658E-01
QETSC: Iter time (min)       =  45.65
QETSC: Iter time (max)       =  66.30
QETSC: Iter time (avg)       =  53.89
QETSC: Num. of conv. evals   =         257
QETSC: Eigenvalue (1)        =-2.19081568046E+00
QETSC: Eigenvalue (nocc)     =-8.14071800190E-01
QETSC: Max differrence       = 2.19081568046E+00
QETSC: Safe iteration        =      F
QETSC: Finished iter            1
 *****************************************************************

siesta: Program's energy decomposition (eV):
siesta: Ebs     =     -9068.807164
siesta: Eions   =     52214.686667
siesta: Ena     =     11706.338257
siesta: Ekin    =     20923.121069
siesta: Enl     =     -3072.929041
siesta: DEna    =         0.000034
siesta: DUscf   =         0.000000
siesta: DUext   =         0.000000
siesta: Exc     =     -7270.028794
siesta: eta*DQ  =         0.000000
siesta: Emadel  =         0.000000
siesta: Emeta   =         0.000000
siesta: Emolmec =         0.000000
siesta: Ekinion =         0.000000
siesta: Eharris =    -30210.955678
siesta: Etot    =    -29928.185143
siesta: FreeEng =    -29928.185143
timer: Routine,Calls,Time,% =    IterSCF     1     215.921  67.78
             Section          Calls    Walltime % sect.
 IterSCF                          1     216.319  100.00
  setup_H                         1     120.348   55.63
  compute_dm                      1      95.821   44.30
  MPI_ALLREDUCE                   3       0.085    0.04
  MIXER                           1       0.056    0.03
 QETSC: Estimated eigenvalues         =
-1.7873015873015876E+00
-1.7767195767195769E+00
-1.7661375661375665E+00
-1.7555555555555558E+00
-1.7492063492063494E+00
-1.7428571428571431E+00
-1.7365079365079366E+00
-1.7301587301587302E+00
-1.7238095238095239E+00
-1.7198412698412699E+00
-1.7158730158730160E+00
-1.7119047619047620E+00
-1.7079365079365081E+00
-1.7039682539682541E+00
-1.7000000000000002E+00
-1.6960317460317462E+00
-1.6920634920634923E+00
-1.6891774891774893E+00
-1.6862914862914866E+00
-1.6834054834054837E+00
-1.6805194805194807E+00
-1.6776334776334778E+00
-1.6747474747474751E+00
-1.6718614718614722E+00
-1.6689754689754692E+00
-1.6660894660894663E+00
-1.6632034632034636E+00
-1.6603174603174606E+00
-1.6576719576719581E+00
-1.6550264550264553E+00
-1.6523809523809527E+00
-1.6497354497354499E+00
-1.6470899470899474E+00
-1.6444444444444448E+00
-1.6417989417989420E+00
-1.6391534391534395E+00
-1.6365079365079367E+00
-1.6338624338624341E+00
-1.6312169312169313E+00
-1.6285714285714288E+00
-1.6264550264550266E+00
-1.6243386243386246E+00
-1.6222222222222225E+00
-1.6201058201058203E+00
-1.6179894179894181E+00
-1.6158730158730161E+00
-1.6137566137566139E+00
-1.6116402116402118E+00
-1.6095238095238096E+00
-1.6074074074074076E+00
-1.6052910052910054E+00
-1.6031746031746033E+00
-1.6010582010582011E+00
-1.5989417989417991E+00
-1.5968253968253969E+00
-1.5928571428571430E+00
-1.5888888888888890E+00
-1.5849206349206351E+00
-1.5809523809523811E+00
-1.5769841269841272E+00
-1.5730158730158732E+00
-1.5690476190476192E+00
-1.5650793650793653E+00
-1.5492063492063495E+00
-9.6190476190476204E-01
-9.5555555555555571E-01
-9.4920634920634939E-01
-9.4285714285714306E-01
-9.3650793650793673E-01
-9.3015873015873041E-01
-9.2222222222222250E-01
-9.1428571428571459E-01
-9.0634920634920668E-01
-8.9841269841269877E-01
-8.9552669552669584E-01
-8.9264069264069301E-01
-8.8975468975469008E-01
-8.8686868686868714E-01
-8.8398268398268431E-01
-8.8109668109668138E-01
-8.7821067821067855E-01
-8.7532467532467562E-01
-8.7243867243867268E-01
-8.6955266955266985E-01
-8.6666666666666692E-01
-8.6378066378066398E-01
-8.6089466089466116E-01
-8.5800865800865822E-01
-8.5512265512265528E-01
-8.5223665223665246E-01
-8.4935064935064952E-01
-8.4646464646464670E-01
-8.4357864357864376E-01
-8.4069264069264082E-01
-8.3780663780663800E-01
-8.3492063492063506E-01
-8.3265306122448990E-01
-8.3038548752834485E-01
-8.2811791383219968E-01
-8.2585034013605463E-01
-8.2358276643990946E-01
-8.2131519274376441E-01
-8.1904761904761925E-01
-8.1678004535147408E-01
-8.1451247165532903E-01
-8.1224489795918386E-01
-8.0997732426303881E-01
-8.0770975056689365E-01
-8.0544217687074859E-01
-8.0317460317460343E-01
-8.0073260073260100E-01
-7.9829059829059856E-01
-7.9584859584859613E-01
-7.9340659340659370E-01
-7.9096459096459126E-01
-7.8852258852258883E-01
-7.8608058608058640E-01
-7.8363858363858396E-01
-7.8119658119658153E-01
-7.7875457875457910E-01
-7.7631257631257666E-01
-7.7387057387057423E-01
-7.7142857142857180E-01
-7.6507936507936547E-01
-7.5873015873015903E-01
-7.5238095238095271E-01
-7.4603174603174627E-01
-7.3968253968253994E-01
-6.7619047619047645E-01
-6.4444444444444482E-01
-6.3809523809523849E-01
-6.3174603174603206E-01
-6.2539682539682573E-01
-6.1904761904761929E-01
-6.1269841269841296E-01
-6.0740740740740762E-01
-6.0211640211640238E-01
-5.9682539682539704E-01
-5.9153439153439169E-01
-5.8624338624338646E-01
-5.8095238095238111E-01
-5.7698412698412715E-01
-5.7301587301587320E-01
-5.6904761904761925E-01
-5.6507936507936529E-01
-5.6111111111111134E-01
-5.5714285714285738E-01
-5.5317460317460343E-01
-5.4920634920634948E-01
-5.4523809523809552E-01
-5.4126984126984157E-01
-5.3730158730158761E-01
-5.3333333333333366E-01
-5.2936507936507970E-01
-5.2539682539682575E-01
-5.2142857142857180E-01
-5.1746031746031784E-01
-5.1457431457431491E-01
-5.1168831168831208E-01
-5.0880230880230914E-01
-5.0591630591630621E-01
-5.0303030303030338E-01
-5.0014430014430045E-01
-4.9725829725829757E-01
-4.9437229437229468E-01
-4.9148629148629180E-01
-4.8860028860028887E-01
-4.8571428571428599E-01
-4.8253968253968282E-01
-4.7936507936507960E-01
-4.7619047619047644E-01
-4.7301587301587322E-01
-4.6984126984127006E-01
-4.6666666666666690E-01
-4.6349206349206368E-01
-4.6031746031746051E-01
-4.5714285714285730E-01
-4.5396825396825413E-01
-4.5044091710758394E-01
-4.4691358024691374E-01
-4.4338624338624361E-01
-4.3985890652557341E-01
-4.3633156966490322E-01
-4.3280423280423302E-01
-4.2927689594356289E-01
-4.2574955908289269E-01
-4.2222222222222250E-01
-4.1957671957671988E-01
-4.1693121693121721E-01
-4.1428571428571459E-01
-4.1164021164021197E-01
-4.0899470899470930E-01
-4.0634920634920668E-01
-4.0370370370370406E-01
-4.0105820105820139E-01
-3.9841269841269877E-01
-3.9576719576719616E-01
-3.9312169312169348E-01
-3.9047619047619087E-01
-3.8783068783068819E-01
-3.8518518518518557E-01
-3.8253968253968290E-01
-3.7989417989418023E-01
-3.7724867724867761E-01
-3.7460317460317494E-01
-3.7195767195767226E-01
-3.6931216931216965E-01
-3.6666666666666697E-01
-3.6402116402116430E-01
-3.6137566137566168E-01
-3.5873015873015901E-01
-3.5646258503401390E-01
-3.5419501133786874E-01
-3.5192743764172363E-01
-3.4965986394557846E-01
-3.4739229024943336E-01
-3.4512471655328819E-01
-3.4285714285714308E-01
-3.4058956916099797E-01
-3.3832199546485281E-01
-3.3605442176870770E-01
-3.3378684807256254E-01
-3.3151927437641743E-01
-3.2925170068027226E-01
-3.2698412698412715E-01
-3.2471655328798205E-01
-3.2244897959183694E-01
-3.2018140589569183E-01
-3.1791383219954666E-01
-3.1564625850340156E-01
-3.1337868480725645E-01
-3.1111111111111134E-01
-3.0884353741496623E-01
-3.0657596371882112E-01
-3.0430839002267601E-01
-3.0204081632653085E-01
-2.9977324263038574E-01
-2.9750566893424063E-01
-2.9523809523809552E-01
-2.9235209235209264E-01
-2.8946608946608976E-01
-2.8658008658008688E-01
-2.8369408369408400E-01
-2.8080808080808112E-01
-2.7792207792207829E-01
-2.7503607503607541E-01
-2.7215007215007253E-01
-2.6926406926406965E-01
-2.6637806637806677E-01
-2.6349206349206389E-01
-2.5714285714285751E-01
-2.5079365079365112E-01
-2.4444444444444477E-01
-2.3809523809523842E-01
-2.3174603174603203E-01
-2.0000000000000018E-01
 QETSC: Bins             =
              -Infinity
-1.7873015873015876E+00
-1.7714285714285718E+00
-1.7555555555555558E+00
-1.7396825396825399E+00
-1.7238095238095241E+00
-1.7079365079365083E+00
-1.6920634920634923E+00
-1.6761904761904765E+00
-1.6603174603174606E+00
-1.6444444444444448E+00
-1.6285714285714288E+00
-1.6126984126984130E+00
-1.5968253968253971E+00
-1.5809523809523811E+00
-1.5650793650793653E+00
-1.5492063492063495E+00
-9.6190476190476204E-01
-9.4569402228976707E-01
-9.2948328267477220E-01
-9.1327254305977723E-01
-8.9706180344478237E-01
-8.8085106382978740E-01
-8.6464032421479242E-01
-8.4842958459979756E-01
-8.3221884498480259E-01
-8.1600810536980761E-01
-7.9979736575481275E-01
-7.8358662613981778E-01
-7.6737588652482280E-01
-7.5116514690982794E-01
-7.3495440729483297E-01
-7.1874366767983799E-01
-7.0253292806484313E-01
-6.8632218844984827E-01
-6.7011144883485330E-01
-6.5390070921985832E-01
-6.3768996960486346E-01
-6.2147922998986849E-01
-6.0526849037487351E-01
-5.8905775075987865E-01
-5.7284701114488368E-01
-5.5663627152988870E-01
-5.4042553191489384E-01
-5.2421479229989887E-01
-5.0800405268490390E-01
-4.9179331306990903E-01
-4.7558257345491406E-01
-4.5937183383991920E-01
-4.4316109422492422E-01
-4.2695035460992925E-01
-4.1073961499493439E-01
-3.9452887537993941E-01
-3.7831813576494455E-01
-3.6210739614994958E-01
-3.4589665653495461E-01
-3.2968591691995974E-01
-3.1347517730496477E-01
-2.9726443768996980E-01
-2.8105369807497493E-01
-2.6484295845997996E-01
-2.4863221884498499E-01
-2.3242147922999012E-01
-2.1621073961499515E-01
-2.0000000000000018E-01
QETSC: Started iter            2
QETSC: Bin type used         =           2
QETSC: Buffer used           = 0.00000000000E+00
QETSC: EPS interval          = -Infinity,    -0.200
QETSC: Inertia type          =           1
 QETSC: Eigenvalues         =
-1.7792611814617225E+00
-1.7656199759915805E+00
-1.7577148406249312E+00
-1.7515395509081317E+00
-1.7449626245179599E+00
-1.7394942065905132E+00
-1.7323889833350767E+00
-1.7273000512095789E+00
-1.7205822187568629E+00
-1.7181333740124645E+00
-1.7174388762098767E+00
-1.7154629844148688E+00
-1.7072645392034635E+00
-1.7041139796552391E+00
-1.7030951586710359E+00
-1.6980456548902589E+00
-1.6906758073019368E+00
-1.6894656569775093E+00
-1.6828818334433682E+00
-1.6800449490218130E+00
-1.6775428974409246E+00
-1.6751855540590717E+00
-1.6741192144255779E+00
-1.6714940174424993E+00
-1.6694587372957221E+00
-1.6640966934876509E+00
-1.6605541550432472E+00
-1.6570289783788921E+00
-1.6544703462474135E+00
-1.6533293312105162E+00
-1.6521722657135858E+00
-1.6497956275451751E+00
-1.6488872295483687E+00
-1.6458376869956006E+00
-1.6407671130017916E+00
-1.6372798138490037E+00
-1.6360663286337114E+00
-1.6311411890350982E+00
-1.6303524525484392E+00
-1.6246022054269118E+00
-1.6238700157366119E+00
-1.6221281595732615E+00
-1.6216197294418797E+00
-1.6186987987779671E+00
-1.6161614410523093E+00
-1.6130551260598609E+00
-1.6099750240736754E+00
-1.6089307857302568E+00
-1.6071808700828512E+00
-1.6064432854949953E+00
-1.6013564418147996E+00
-1.6002927469326880E+00
-1.5997913292867090E+00
-1.5977158653527663E+00
-1.5955202717358268E+00
-1.5931924296852391E+00
-1.5855723574183551E+00
-1.5793554893746988E+00
-1.5787320656267911E+00
-1.5770673355014786E+00
-1.5743537321545424E+00
-1.5722790173747210E+00
-1.5583204595393128E+00
-1.5352960271138851E+00
-9.4371670327697399E-01
-9.4142211932869890E-01
-9.3304075867433423E-01
-9.3077619373567722E-01
-9.3026187494518620E-01
-9.2582981167215106E-01
-9.2342734461465537E-01
-9.0629735012544033E-01
-8.9930830900971792E-01
-8.9669115768571173E-01
-8.9207954503917575E-01
-8.9073432103194639E-01
-8.8902039289397550E-01
-8.8708926120937548E-01
-8.8328811446904032E-01
-8.8089793768337066E-01
-8.7449017673692298E-01
-8.7423575322428582E-01
-8.6943848910518384E-01
-8.6916563431122251E-01
-8.6573592562313118E-01
-8.6261012062070197E-01
-8.6104201509247891E-01
-8.5884082709308085E-01
-8.5721675397073893E-01
-8.5062004401358715E-01
-8.4941646804876525E-01
-8.4740145017836743E-01
-8.4194196946841426E-01
-8.3875876616434997E-01
-8.3517125562037786E-01
-8.3486625308875950E-01
-8.3369309172861550E-01
-8.3144801754020359E-01
-8.3029659067940464E-01
-8.2615880394335350E-01
-8.2346608564768875E-01
-8.2190987505793578E-01
-8.1799606937820302E-01
-8.1707689750799872E-01
-8.1646266402853251E-01
-8.1382984553492421E-01
-8.1108431023979399E-01
-8.1023559222851016E-01
-8.0417586139982156E-01
-8.0294410680957906E-01
-8.0054916470553084E-01
-8.0048405649628918E-01
-7.9884147483065504E-01
-7.9598959413931791E-01
-7.9344676974342576E-01
-7.9136476487000862E-01
-7.8971343377214531E-01
-7.8837584540546846E-01
-7.8677307636876925E-01
-7.8342717704214659E-01
-7.7928380694392596E-01
-7.7193837521440267E-01
-7.6296263693955757E-01
-7.5982610841081377E-01
-7.5693024432773370E-01
-7.5439728353595492E-01
-7.4989018795437734E-01
-7.3500600670722771E-01
-6.5720859936483011E-01
-6.3867200931108747E-01
-6.3654841733835088E-01
-6.3186998398601091E-01
-6.2528970112995008E-01
-6.1615639822247636E-01
-6.0902428793376684E-01
-6.0846738602271178E-01
-6.0445938810250566E-01
-5.9299373790840670E-01
-5.8653102095870124E-01
-5.8101827177326115E-01
-5.7786116627079731E-01
-5.7582109761541067E-01
-5.7168382540314788E-01
-5.6929466776899895E-01
-5.6113128915857091E-01
-5.5562757479920122E-01
-5.5377739073252819E-01
-5.4980871067677661E-01
-5.4601760358400941E-01
-5.4486663688835246E-01
-5.3731485603368689E-01
-5.3563058427302901E-01
-5.3086234891068540E-01
-5.2802412128421183E-01
-5.2329512957936997E-01
-5.2193417055549995E-01
-5.1742587245060756E-01
-5.1504298990139930E-01
-5.1257045357699160E-01
-5.1028149921859467E-01
-5.0405801863076105E-01
-5.0235676885540603E-01
-4.9941038594450721E-01
-4.9531379108035506E-01
-4.9148552473844931E-01
-4.9116711857675022E-01
-4.8764802452216560E-01
-4.8314679171057823E-01
-4.8208297074494355E-01
-4.7752994845772601E-01
-4.7120570515871513E-01
-4.6967346436549673E-01
-4.6511182087711878E-01
-4.6210672896887350E-01
-4.6110436416298417E-01
-4.5943676622950269E-01
-4.5575320347750364E-01
-4.5265770294959329E-01
-4.4550415285482570E-01
-4.4311144432038374E-01
-4.4130053184566337E-01
-4.3571140934548536E-01
-4.3331576468525329E-01
-4.2887120844967275E-01
-4.2551632668893474E-01
-4.2298743089260188E-01
-4.2117326648849185E-01
-4.1944774644109417E-01
-4.1374657593833702E-01
-4.1232065134104801E-01
-4.0827228365523427E-01
-4.0696600828317225E-01
-4.0436823599734301E-01
-3.9870492374626260E-01
-3.9836806502058525E-01
-3.9506213448913607E-01
-3.9217739182798478E-01
-3.9057881993989219E-01
-3.8669441243808961E-01
-3.8478181210174683E-01
-3.8058659885678298E-01
-3.7833289655452668E-01
-3.7620411026131201E-01
-3.7404405629157589E-01
-3.7274926638111877E-01
-3.6806500531165326E-01
-3.6527347524310028E-01
-3.6295800114672561E-01
-3.6166208889580431E-01
-3.5902010871547718E-01
-3.5801970618151641E-01
-3.5641683751744180E-01
-3.5486421112676059E-01
-3.4910209728812647E-01
-3.4879925953986635E-01
-3.4592221801753270E-01
-3.4399420331314018E-01
-3.4358721253232000E-01
-3.3866828790973663E-01
-3.3836462876074558E-01
-3.3637688839162561E-01
-3.3343227164961892E-01
-3.3247290190284529E-01
-3.3007368395640246E-01
-3.2375239548319967E-01
-3.2093890410352433E-01
-3.1944277331255272E-01
-3.1890092330854825E-01
-3.1574469783843834E-01
-3.1365899607921732E-01
-3.1275490721061905E-01
-3.1008039041337421E-01
-3.0875870883941009E-01
-3.0796787102661011E-01
-3.0473604949130634E-01
-3.0276913341237705E-01
-2.9863759792120209E-01
-2.9730342670149640E-01
-2.9517955365628301E-01
-2.9057874671650746E-01
-2.8889751991421503E-01
-2.8632519789292110E-01
-2.8326595387154641E-01
-2.8082947650505730E-01
-2.8004794049701914E-01
-2.7678107623980824E-01
-2.7373375093657171E-01
-2.6983745707073975E-01
-2.6489259560024042E-01
-2.6339029625627741E-01
-2.5996373731866429E-01
-2.5668065711371829E-01
-2.5477982785162129E-01
-2.4608950871944435E-01
-2.3020443169146640E-01
-2.1984682709918349E-01
QETSC: Iter time (min)       =  30.00
QETSC: Iter time (max)       =  42.98
QETSC: Iter time (avg)       =  34.92
QETSC: Num. of conv. evals   =         256
QETSC: Eigenvalue (1)        =-1.77926118146E+00
QETSC: Eigenvalue (nocc)     =-2.19846827099E-01
QETSC: Max differrence       = 5.94224973091E-01
QETSC: Safe iteration        =      F
QETSC: Finished iter            2
 *****************************************************************
 QETSC: Estimated eigenvalues         =
-2.0412698412698416E+00
-2.0386243386243388E+00
-2.0359788359788364E+00
-2.0333333333333337E+00
-2.0306878306878309E+00
-2.0280423280423281E+00
-2.0253968253968253E+00
-2.0227513227513230E+00
-2.0201058201058202E+00
-2.0174603174603174E+00
-2.0148148148148151E+00
-2.0121693121693123E+00
-2.0095238095238095E+00
-2.0079365079365079E+00
-2.0063492063492063E+00
-2.0047619047619047E+00
-2.0031746031746032E+00
-2.0015873015873016E+00
-2.0000000000000000E+00
-1.9984126984126984E+00
-1.9968253968253968E+00
-1.9952380952380953E+00
-1.9936507936507937E+00
-1.9920634920634921E+00
-1.9904761904761905E+00
-1.9888888888888889E+00
-1.9873015873015873E+00
-1.9857142857142858E+00
-1.9841269841269842E+00
-1.9825396825396826E+00
-1.9809523809523810E+00
-1.9793650793650794E+00
-1.9777777777777779E+00
-1.9766830870279146E+00
-1.9755883962780516E+00
-1.9744937055281884E+00
-1.9733990147783251E+00
-1.9723043240284621E+00
-1.9712096332785989E+00
-1.9701149425287356E+00
-1.9690202517788726E+00
-1.9679255610290094E+00
-1.9668308702791462E+00
-1.9657361795292831E+00
-1.9646414887794199E+00
-1.9635467980295567E+00
-1.9624521072796937E+00
-1.9613574165298304E+00
-1.9602627257799674E+00
-1.9591680350301042E+00
-1.9580733442802409E+00
-1.9569786535303779E+00
-1.9558839627805147E+00
-1.9547892720306514E+00
-1.9536945812807884E+00
-1.9525998905309252E+00
-1.9515051997810620E+00
-1.9504105090311989E+00
-1.9493158182813357E+00
-1.9482211275314725E+00
-1.9471264367816095E+00
-1.9460317460317462E+00
-1.9354497354497358E+00
-1.9248677248677251E+00
-1.1841269841269844E+00
-1.1682539682539685E+00
-1.1523809523809527E+00
-1.1470899470899474E+00
-1.1417989417989420E+00
-1.1365079365079369E+00
-1.1312169312169316E+00
-1.1259259259259262E+00
-1.1206349206349209E+00
-1.1190476190476193E+00
-1.1174603174603177E+00
-1.1158730158730161E+00
-1.1142857142857145E+00
-1.1126984126984130E+00
-1.1111111111111114E+00
-1.1095238095238098E+00
-1.1079365079365082E+00
-1.1063492063492066E+00
-1.1047619047619048E+00
-1.1031746031746033E+00
-1.1015873015873017E+00
-1.1000000000000001E+00
-1.0984126984126985E+00
-1.0968253968253969E+00
-1.0952380952380953E+00
-1.0936507936507938E+00
-1.0920634920634922E+00
-1.0904761904761906E+00
-1.0888888888888890E+00
-1.0876190476190477E+00
-1.0863492063492064E+00
-1.0850793650793653E+00
-1.0838095238095240E+00
-1.0825396825396827E+00
-1.0812698412698414E+00
-1.0800000000000001E+00
-1.0787301587301590E+00
-1.0774603174603177E+00
-1.0761904761904764E+00
-1.0749206349206351E+00
-1.0736507936507937E+00
-1.0723809523809527E+00
-1.0711111111111113E+00
-1.0698412698412700E+00
-1.0685714285714287E+00
-1.0673015873015874E+00
-1.0660317460317463E+00
-1.0647619047619050E+00
-1.0634920634920637E+00
-1.0622222222222224E+00
-1.0609523809523811E+00
-1.0596825396825400E+00
-1.0584126984126987E+00
-1.0571428571428574E+00
-1.0542568542568544E+00
-1.0513708513708517E+00
-1.0484848484848488E+00
-1.0455988455988459E+00
-1.0427128427128429E+00
-1.0398268398268402E+00
-1.0369408369408373E+00
-1.0340548340548343E+00
-1.0311688311688314E+00
-1.0282828282828287E+00
-9.3015873015873041E-01
-9.1957671957671983E-01
-9.0899470899470936E-01
-8.9841269841269877E-01
-8.9488536155202858E-01
-8.9135802469135839E-01
-8.8783068783068819E-01
-8.8430335097001800E-01
-8.8077601410934769E-01
-8.7724867724867750E-01
-8.7372134038800731E-01
-8.7019400352733711E-01
-8.6666666666666692E-01
-8.6455026455026485E-01
-8.6243386243386266E-01
-8.6031746031746059E-01
-8.5820105820105841E-01
-8.5608465608465634E-01
-8.5396825396825415E-01
-8.5185185185185208E-01
-8.4973544973544990E-01
-8.4761904761904783E-01
-8.4550264550264564E-01
-8.4338624338624357E-01
-8.4126984126984139E-01
-8.3915343915343932E-01
-8.3703703703703725E-01
-8.3492063492063506E-01
-8.3265306122448990E-01
-8.3038548752834485E-01
-8.2811791383219968E-01
-8.2585034013605463E-01
-8.2358276643990946E-01
-8.2131519274376441E-01
-8.1904761904761925E-01
-8.1678004535147408E-01
-8.1451247165532903E-01
-8.1224489795918386E-01
-8.0997732426303881E-01
-8.0770975056689365E-01
-8.0544217687074859E-01
-8.0317460317460343E-01
-8.0105820105820136E-01
-7.9894179894179918E-01
-7.9682539682539710E-01
-7.9470899470899503E-01
-7.9259259259259285E-01
-7.9047619047619078E-01
-7.8835978835978870E-01
-7.8624338624338652E-01
-7.8412698412698445E-01
-7.8201058201058238E-01
-7.7989417989418020E-01
-7.7777777777777812E-01
[...]
        MPI_SEND                 59      23.436    0.69
        MPI_RECV                 55      36.008    1.05
     overfsm                      1       0.404    0.01
     MolMec                       1       0.000    0.00
    state_analysis                1       0.015    0.00
    siesta_move                   1       0.000    0.00
   optical                        1       0.000    0.00
   MPI_BCAST                      3       0.000    0.00
   MPI_ALLGATHER                  2       0.073    0.00
   MPI_BARRIER                    2       0.173    0.01
  MPI_ALLGATHER                  56       1.213    0.04
  MPI_BCAST                       2       0.000    0.00
  MPI_RECV                        4       0.001    0.00
>> End of run:  24-SEP-2016  15:28:38
************************************************************************************************************************
***             WIDEN YOUR WINDOW TO 120 CHARACTERS.  Use 'enscript -r -fCourier9' to print this document            ***
************************************************************************************************************************

---------------------------------------------- PETSc Performance Summary: ----------------------------------------------

/home/keceli/lib/siesta-qetsc/Obj/siesta on a arch-gccopt named b445 with 64 processors, by keceli Sat Sep 24 15:28:38 2016
Using Petsc Development GIT revision: v3.7.3-1320-g04d0fa7  GIT Date: 2016-09-01 18:08:27 -0500

                         Max       Max/Min        Avg      Total 
Time (sec):           3.419e+03      1.00001   3.419e+03
Objects:              3.975e+03      1.04826   3.962e+03
Flops:                2.185e+11    966.73306   1.120e+11  7.167e+12
Flops/sec:            6.391e+07    966.73556   3.275e+07  2.096e+09
MPI Messages:         8.681e+03      1.57894   7.257e+03  4.645e+05
MPI Message Lengths:  4.609e+06      1.99741   4.924e+02  2.287e+08
MPI Reductions:       9.776e+03      1.00000

Flop counting convention: 1 flop = 1 real number operation of type (multiply/divide/add/subtract)
                            e.g., VecAXPY() for real vectors of length N --> 2N flops
                            and VecAXPY() for complex vectors of length N --> 8N flops

Summary of Stages:   ----- Time ------  ----- Flops -----  --- Messages ---  -- Message Lengths --  -- Reductions --
                        Avg     %Total     Avg     %Total   counts   %Total     Avg         %Total   counts   %Total 
 0:      Main Stage: 1.0055e-02   0.0%  0.0000e+00   0.0%  0.000e+00   0.0%  0.000e+00        0.0%  0.000e+00   0.0% 
 1:     siesta_init: 5.3606e-01   0.0%  0.0000e+00   0.0%  0.000e+00   0.0%  0.000e+00        0.0%  0.000e+00   0.0% 
 2:   siesta_forces: 2.2264e+02   6.5%  0.0000e+00   0.0%  0.000e+00   0.0%  0.000e+00        0.0%  0.000e+00   0.0% 
 3:    siesta_solve: 1.3450e-02   0.0%  0.0000e+00   0.0%  0.000e+00   0.0%  0.000e+00        0.0%  0.000e+00   0.0% 
 4:    siesta2qetsc: 1.9586e+01   0.6%  0.0000e+00   0.0%  8.064e+03   1.7%  2.785e+00        0.6%  6.900e+01   0.7% 
 5: qetsc_setup_eps: 5.2773e+01   1.5%  1.4466e+10   0.2%  0.000e+00   0.0%  0.000e+00        0.0%  5.400e+01   0.6% 
 6: qetsc_solve_eps: 5.2466e+02  15.3%  7.1526e+12  99.8%  2.646e+03   0.6%  3.418e-02        0.0%  1.520e+02   1.6% 
 7:   qetsc_eigvals: 2.1637e-03   0.0%  0.0000e+00   0.0%  0.000e+00   0.0%  0.000e+00        0.0%  0.000e+00   0.0% 
 8:   qetsc_density: 2.4606e+02   7.2%  0.0000e+00   0.0%  4.538e+05  97.7%  4.896e+02       99.4%  9.500e+03  97.2% 
10:     siesta_misc: 2.3512e+03  68.8%  0.0000e+00   0.0%  0.000e+00   0.0%  0.000e+00        0.0%  0.000e+00   0.0% 
11:     siesta_move: 4.9423e-04   0.0%  0.0000e+00   0.0%  0.000e+00   0.0%  0.000e+00        0.0%  0.000e+00   0.0% 
12: siesta_analysis: 6.3021e-03   0.0%  0.0000e+00   0.0%  0.000e+00   0.0%  0.000e+00        0.0%  0.000e+00   0.0% 
13:      siesta_end: 1.5339e+00   0.0%  0.0000e+00   0.0%  0.000e+00   0.0%  0.000e+00        0.0%  0.000e+00   0.0% 

------------------------------------------------------------------------------------------------------------------------
See the 'Profiling' chapter of the users' manual for details on interpreting output.
Phase summary info:
   Count: number of times phase was executed
   Time and Flops: Max - maximum over all processors
                   Ratio - ratio of maximum to minimum over all processors
   Mess: number of messages sent
   Avg. len: average message length (bytes)
   Reduct: number of global reductions
   Global: entire computation
   Stage: stages of a computation. Set stages with PetscLogStagePush() and PetscLogStagePop().
      %T - percent time in this phase         %F - percent flops in this phase
      %M - percent messages in this phase     %L - percent message lengths in this phase
      %R - percent reductions in this phase
   Total Mflop/s: 10e-6 * (sum of flops over all processors)/(max time over all processors)
------------------------------------------------------------------------------------------------------------------------
Event                Count      Time (sec)     Flops                             --- Global ---  --- Stage ---   Total
                   Max Ratio  Max     Ratio   Max  Ratio  Mess   Avg len Reduct  %T %F %M %L %R  %T %F %M %L %R Mflop/s
------------------------------------------------------------------------------------------------------------------------

--- Event Stage 0: Main Stage


--- Event Stage 1: siesta_init


--- Event Stage 2: siesta_forces


--- Event Stage 3: siesta_solve


--- Event Stage 4: siesta2qetsc

MatConvert            14 1.0 7.2587e-02 5.7 0.00e+00 0.0 0.0e+00 0.0e+00 0.0e+00  0  0  0  0  0   0  0  0  0  0     0
MatAssemblyBegin      15 1.0 1.2922e+0113.6 0.00e+00 0.0 0.0e+00 0.0e+00 3.0e+01  0  0  0  0  0  32  0  0  0 43     0
MatAssemblyEnd        15 1.0 1.3659e+00 1.1 0.00e+00 0.0 8.1e+03 1.6e+02 3.7e+01  0  0  2  1  0   7  0100100 54     0
VecSet                15 1.0 4.5185e-0342.8 0.00e+00 0.0 0.0e+00 0.0e+00 0.0e+00  0  0  0  0  0   0  0  0  0  0     0

--- Event Stage 5: qetsc_setup_eps

MatConvert            13 1.0 2.0523e+00 1.9 0.00e+00 0.0 0.0e+00 0.0e+00 0.0e+00  0  0  0  0  0   3  0  0  0  0     0
MatScale              26 1.0 7.5974e-01 3.2 2.26e+08 1.0 0.0e+00 0.0e+00 0.0e+00  0  0  0  0  0   1100  0  0  0 19041
MatAssemblyBegin      13 1.0 1.1921e-0512.5 0.00e+00 0.0 0.0e+00 0.0e+00 0.0e+00  0  0  0  0  0   0  0  0  0  0     0
MatAssemblyEnd        13 1.0 2.3786e-01 1.7 0.00e+00 0.0 0.0e+00 0.0e+00 0.0e+00  0  0  0  0  0   0  0  0  0  0     0
MatGetSubMatrice      13 1.0 5.1617e+01 1.1 0.00e+00 0.0 0.0e+00 0.0e+00 5.2e+01  1  0  0  0  1  95  0  0  0 96     0
MatAXPY               13 1.0 8.3097e-01 2.4 0.00e+00 0.0 0.0e+00 0.0e+00 0.0e+00  0  0  0  0  0   1  0  0  0  0     0
MatRedundantMat       13 1.0 5.3423e+01 1.1 0.00e+00 0.0 0.0e+00 0.0e+00 5.2e+01  2  0  0  0  1  98  0  0  0 96     0

--- Event Stage 6: qetsc_solve_eps

MatMult             6114 0.0 2.0788e+02 0.0 2.13e+11 0.0 0.0e+00 0.0e+00 0.0e+00  3 98  0  0  0  23 98  0  0  0 33797
MatSolve            2069 0.0 8.1486e+01 0.0 0.00e+00 0.0 0.0e+00 0.0e+00 0.0e+00  1  0  0  0  0   9  0  0  0  0     0
MatCholFctrSym         1 1.0 1.0081e+01 3.0 0.00e+00 0.0 0.0e+00 0.0e+00 0.0e+00  0  0  0  0  0   1  0  0  0  0     0
MatCholFctrNum        21 1.5 7.7454e+01 1.8 0.00e+00 0.0 0.0e+00 0.0e+00 0.0e+00  2  0  0  0  0  12  0  0  0  0     0
MatCopy               20 1.5 2.6023e+01 1.7 0.00e+00 0.0 0.0e+00 0.0e+00 0.0e+00  1  0  0  0  0   4  0  0  0  0     0
MatConvert             3 1.0 4.6437e-01 1.9 0.00e+00 0.0 0.0e+00 0.0e+00 0.0e+00  0  0  0  0  0   0  0  0  0  0     0
MatAssemblyBegin      43 1.5 1.4544e-05 5.1 0.00e+00 0.0 0.0e+00 0.0e+00 0.0e+00  0  0  0  0  0   0  0  0  0  0     0
MatAssemblyEnd        43 1.5 5.9925e-01 1.7 0.00e+00 0.0 0.0e+00 0.0e+00 0.0e+00  0  0  0  0  0   0  0  0  0  0     0
MatGetRow         361088 1.5 8.2219e-02 3.5 0.00e+00 0.0 0.0e+00 0.0e+00 0.0e+00  0  0  0  0  0   0  0  0  0  0     0
MatGetRowIJ            1 1.0 1.9073e-0520.0 0.00e+00 0.0 0.0e+00 0.0e+00 0.0e+00  0  0  0  0  0   0  0  0  0  0     0
MatGetSubMatrice       2 1.0 9.6770e+00 1.0 0.00e+00 0.0 0.0e+00 0.0e+00 8.0e+00  0  0  0  0  0   2  0  0  0  5     0
MatGetOrdering         1 1.0 1.5187e-04 2.0 0.00e+00 0.0 0.0e+00 0.0e+00 0.0e+00  0  0  0  0  0   0  0  0  0  0     0
MatZeroEntries        20 1.5 5.3183e-01 1.7 0.00e+00 0.0 0.0e+00 0.0e+00 0.0e+00  0  0  0  0  0   0  0  0  0  0     0
MatAXPY               21 1.5 3.3490e+01 1.7 0.00e+00 0.0 0.0e+00 0.0e+00 0.0e+00  1  0  0  0  0   5  0  0  0  0     0
MatRedundantMat        2 1.0 9.8926e+00 1.0 0.00e+00 0.0 0.0e+00 0.0e+00 8.0e+00  0  0  0  0  0   2  0  0  0  5     0
VecDot               102 0.0 1.0666e-02 0.0 1.19e+06 0.0 0.0e+00 0.0e+00 0.0e+00  0  0  0  0  0   0  0  0  0  0  3920
VecCopy               38 0.0 2.3150e-04 0.0 0.00e+00 0.0 0.0e+00 0.0e+00 0.0e+00  0  0  0  0  0   0  0  0  0  0     0
VecSet              220132.9 6.2763e-0229.9 0.00e+00 0.0 0.0e+00 0.0e+00 0.0e+00  0  0  0  0  0   0  0  0  0  0     0
VecSetRandom          14 0.0 1.3542e-02 0.0 0.00e+00 0.0 0.0e+00 0.0e+00 0.0e+00  0  0  0  0  0   0  0  0  0  0     0
EPSSetUp              21 1.0 1.7052e+02 1.0 0.00e+00 0.0 2.6e+03 6.0e+00 6.8e+01  5  0  1  0  1  32  0100100 45     0
EPSSolve              14 1.0 4.5699e+02 1.0 2.18e+11 0.0 1.8e+03 6.0e+00 1.1e+02 13100  0  0  1  87100 67 67 75 15652
STSetUp               35 1.0 9.6980e+01 1.7 0.00e+00 0.0 0.0e+00 0.0e+00 2.0e+00  2  0  0  0  0  16  0  0  0  1     0
STApply             2069 0.0 1.5160e+02 0.0 7.19e+10 0.0 0.0e+00 0.0e+00 0.0e+00  3 35  0  0  0  17 35  0  0  0 16683
STMatSolve          2069 0.0 8.1572e+01 0.0 0.00e+00 0.0 0.0e+00 0.0e+00 0.0e+00  1  0  0  0  0   9  0  0  0  0     0
KSPSetUp              21 1.5 1.8597e-05 3.7 0.00e+00 0.0 0.0e+00 0.0e+00 0.0e+00  0  0  0  0  0   0  0  0  0  0     0
KSPSolve            2069 0.0 8.1527e+01 0.0 0.00e+00 0.0 0.0e+00 0.0e+00 0.0e+00  1  0  0  0  0   9  0  0  0  0     0
PCSetUp               21 1.5 8.6296e+01 1.9 0.00e+00 0.0 0.0e+00 0.0e+00 0.0e+00  2  0  0  0  0  13  0  0  0  0     0
PCApply             2069 0.0 8.1489e+01 0.0 0.00e+00 0.0 0.0e+00 0.0e+00 0.0e+00  1  0  0  0  0   9  0  0  0  0     0
BVCreate              3110.3 1.8417e-01 1.7 0.00e+00 0.0 0.0e+00 0.0e+00 6.0e+00  0  0  0  0  0   0  0  0  0  4     0
BVCopy                38 0.0 2.9778e-04 0.0 0.00e+00 0.0 0.0e+00 0.0e+00 0.0e+00  0  0  0  0  0   0  0  0  0  0     0
BVMultVec           4029 0.0 6.6345e-01 0.0 2.35e+09 0.0 0.0e+00 0.0e+00 0.0e+00  0  1  0  0  0   0  1  0  0  0 90370
BVMultInPlace         38 0.0 8.5791e-02 0.0 9.47e+08 0.0 0.0e+00 0.0e+00 0.0e+00  0  0  0  0  0   0  0  0  0  0 58957
BVDotVec            4029 0.0 1.3877e+02 0.0 1.42e+11 0.0 0.0e+00 0.0e+00 0.0e+00  2 62  0  0  0  14 62  0  0  0 31946
BVOrthogonalizeV    2053 0.0 1.3946e+02 0.0 1.45e+11 0.0 0.0e+00 0.0e+00 0.0e+00  2 63  0  0  0  14 63  0  0  0 32218
BVScale             2069 0.0 1.4344e-02 0.0 1.20e+07 0.0 0.0e+00 0.0e+00 0.0e+00  0  0  0  0  0   0  0  0  0  0 29534
BVNormVec            102 0.0 3.6825e+00 0.0 3.55e+09 0.0 0.0e+00 0.0e+00 0.0e+00  0  2  0  0  0   0  2  0  0  0 33907
BVSetRandom           14 0.0 1.3569e-02 0.0 0.00e+00 0.0 0.0e+00 0.0e+00 0.0e+00  0  0  0  0  0   0  0  0  0  0     0
DSSolve               38 0.0 4.8710e-02 0.0 0.00e+00 0.0 0.0e+00 0.0e+00 0.0e+00  0  0  0  0  0   0  0  0  0  0     0
DSVectors           3040 0.0 6.4611e-04 0.0 0.00e+00 0.0 0.0e+00 0.0e+00 0.0e+00  0  0  0  0  0   0  0  0  0  0     0
DSOther               38 0.0 4.1647e-03 0.0 0.00e+00 0.0 0.0e+00 0.0e+00 0.0e+00  0  0  0  0  0   0  0  0  0  0     0

--- Event Stage 7: qetsc_eigvals


--- Event Stage 8: qetsc_density

VecCopy             3584 1.0 1.2531e-02 9.4 0.00e+00 0.0 0.0e+00 0.0e+00 0.0e+00  0  0  0  0  0   0  0  0  0  0     0
VecSet               256 1.0 1.1971e-03 1.8 0.00e+00 0.0 0.0e+00 0.0e+00 0.0e+00  0  0  0  0  0   0  0  0  0  0     0
VecScatterBegin     7174 1.0 8.7040e+01 1.1 0.00e+00 0.0 2.3e+05 7.3e+02 3.6e+03  2  0 49 72 37  34  0 50 72 38     0
VecScatterEnd       3590 1.0 1.7704e+01 1.5 0.00e+00 0.0 0.0e+00 0.0e+00 0.0e+00  0  0  0  0  0   6  0  0  0  0     0
BVCopy              3584 1.0 1.9203e-02 6.0 0.00e+00 0.0 0.0e+00 0.0e+00 0.0e+00  0  0  0  0  0   0  0  0  0  0     0

--- Event Stage 9: Unknown


--- Event Stage 10: siesta_misc


--- Event Stage 11: siesta_move


--- Event Stage 12: siesta_analysis


--- Event Stage 13: siesta_end

------------------------------------------------------------------------------------------------------------------------

Memory usage is given in bytes:

Object Type          Creations   Destructions     Memory  Descendants' Mem.
Reports information only for process 0.

--- Event Stage 0: Main Stage


--- Event Stage 1: siesta_init


--- Event Stage 2: siesta_forces


--- Event Stage 3: siesta_solve


--- Event Stage 4: siesta2qetsc

              Matrix    45              0            0     0.
              Vector    16              1         1648     0.
      Vector Scatter    15              0            0     0.
           Index Set     2              2        21348     0.

--- Event Stage 5: qetsc_setup_eps

              Matrix    26             39     42877640     0.
              Vector     1             13       534144     0.
      Vector Scatter     0             13        13936     0.
           Index Set    26              0            0     0.
          EPS Solver     1              0            0     0.
  Spectral Transform     1              0            0     0.
       Krylov Solver     1              0            0     0.
      Preconditioner     1              0            0     0.
       Basis Vectors     1              0            0     0.
         PetscRandom     1              0            0     0.
              Region     1              0            0     0.
       Direct Solver     1              0            0     0.

--- Event Stage 6: qetsc_solve_eps

              Matrix    26             20   4174948084     0.
              Vector   120            103      3516008     0.
           Index Set     8              3        34096     0.
          EPS Solver     1              0            0     0.
  Spectral Transform     1              0            0     0.
       Krylov Solver     1              0            0     0.
      Preconditioner     1              0            0     0.
       Basis Vectors    22             20        21120     0.
              Region     1              0            0     0.
       Direct Solver     1              0            0     0.

--- Event Stage 7: qetsc_eigvals


--- Event Stage 8: qetsc_density

              Vector   270             14       675360     0.
      Vector Scatter  1152            896       970704     0.
           Index Set  2048           2048      2257920     0.

--- Event Stage 9: Unknown


--- Event Stage 10: siesta_misc


--- Event Stage 11: siesta_move


--- Event Stage 12: siesta_analysis


--- Event Stage 13: siesta_end

              Viewer     1              0            0     0.
========================================================================================================================
Average time to get PetscTime(): 9.53674e-08
Average time for MPI_Barrier(): 0.0227958
Average time for zero size MPI_Send(): 0.00100208
#PETSc Option Table entries:
-eps_interval -2.2,-0.2
-eps_krylovschur_detect_zeros 0
-eps_krylovschur_partitions 64
-ioptbin 2
-ioptinertia 1
-ioptleft 2
-isglobal 1
-log_view
-mat_mumps_cntl_3 1e-12
-mat_mumps_icntl_13 1
-mat_mumps_icntl_24 1
-mat_mumps_icntl_28 1
-roptbuffer 0.1
-roptdiff 0.01
-roptleft -2.2
-roptright -0.2
-st_pc_factor_mat_solver_package mkl_pardiso
-writeeigs 1
#End of PETSc Option Table entries
Compiled without FORTRAN kernels
Compiled with full precision matrices (default)
sizeof(short) 2 sizeof(int) 4 sizeof(long) 8 sizeof(void*) 8 sizeof(PetscScalar) 8 sizeof(PetscInt) 4
Configure options: --download-metis=1 --download-mumps=1 --download-parmetis=1 --download-ptscotch=1 --download-scalapack=1 --with-blas-lapack-dir=/soft/mkl/11.1.0.080/mkl/ --with-debugging=0 --with-mkl_pardiso-dir=/soft/mkl/11.1.0.080/mkl/ --with-shared-libraries=0 -COPTFLAGS="-O3 -g" -CXXOPTFLAGS="-O3 -g" -FOPTFLAGS="-O3 -g" CC=mpicc CXX=mpicxx FC=mpif90 PETSC_ARCH=arch-gccopt
-----------------------------------------
Libraries compiled on Fri Sep 23 14:58:29 2016 on blogin3 
Machine characteristics: Linux-2.6.32-642.1.1.el6.x86_64-x86_64-with-centos-6.7-Final
Using PETSc directory: /home/keceli/lib/petsc
Using PETSc arch: arch-gccopt
-----------------------------------------

Using C compiler: mpicc   -Wall -Wwrite-strings -Wno-strict-aliasing -Wno-unknown-pragmas -fvisibility=hidden -O3 -g  ${COPTFLAGS} ${CFLAGS}
Using Fortran compiler: mpif90  -Wall -ffree-line-length-0 -Wno-unused-dummy-argument -O3 -g   ${FOPTFLAGS} ${FFLAGS} 
-----------------------------------------

Using include paths: -I/home/keceli/lib/petsc/arch-gccopt/include -I/home/keceli/lib/petsc/include -I/home/keceli/lib/petsc/include -I/home/keceli/lib/petsc/arch-gccopt/include -I/soft/mkl/11.1.0.080/mkl/include -I/blues/gpfs/home/software/spack/opt/spack/linux-x86_64/gcc-5.3.0/mpich-3.2-wraqufukmp7yzyl6a644pnmda7wkg7w7/include
-----------------------------------------

Using C linker: mpicc
Using Fortran linker: mpif90
Using libraries: -Wl,-rpath,/home/keceli/lib/petsc/arch-gccopt/lib -L/home/keceli/lib/petsc/arch-gccopt/lib -lpetsc -Wl,-rpath,/home/keceli/lib/petsc/arch-gccopt/lib -L/home/keceli/lib/petsc/arch-gccopt/lib -lcmumps -ldmumps -lsmumps -lzmumps -lmumps_common -lpord -lscalapack -Wl,-rpath,/soft/mkl/11.1.0.080/mkl/lib/intel64 -L/soft/mkl/11.1.0.080/mkl/lib/intel64 -lmkl_intel_lp64 -lmkl_core -lmkl_intel_thread -liomp5 -ldl -lpthread -lm -lparmetis -lmetis -lptesmumps -lptscotch -lptscotcherr -lscotch -lscotcherr -lX11 -lhwloc -lpthread -lssl -lcrypto -lm -L/blues/gpfs/home/software/spack/opt/spack/linux-x86_64/gcc-4.4.7/gcc-5.3.0-fygfl7rvyuiteto27dlhmilp5cstw2o2/lib64 -L/blues/gpfs/home/software/spack/opt/spack/linux-x86_64/gcc-5.3.0/mpich-3.2-wraqufukmp7yzyl6a644pnmda7wkg7w7/lib -L/blues/gpfs/home/software/spack/opt/spack/linux-x86_64/gcc-4.4.7/gcc-5.3.0-fygfl7rvyuiteto27dlhmilp5cstw2o2/lib64/gcc/x86_64-unknown-linux-gnu/5.3.0 -L/soft/intel/13.1.3/lib/intel64 -L/soft/intel/13.1.3/ipp/lib/intel64 -L/soft/intel/13.1.3/tbb/lib/intel64/gcc4.4 -L/soft/lcrc/lib -lmpifort -lgfortran -lm -Wl,-rpath,/blues/gpfs/home/software/spack/opt/spack/linux-x86_64/gcc-4.4.7/gcc-5.3.0-fygfl7rvyuiteto27dlhmilp5cstw2o2/lib:/blues/gpfs/home/software/spack/opt/spack/linux-x86_64/gcc-4.4.7/gcc-5.3.0-fygfl7rvyuiteto27dlhmilp5cstw2o2/lib64 -Wl,-rpath,/blues/gpfs/home/software/spack/opt/spack/linux-x86_64/gcc-5.3.0/mpich-3.2-wraqufukmp7yzyl6a644pnmda7wkg7w7/lib -lgfortran -lm -lquadmath -lm -lmpicxx -lstdc++ -lrt -lm -lpthread -lz -Wl,-rpath,/blues/gpfs/home/software/spack/opt/spack/linux-x86_64/gcc-4.4.7/gcc-5.3.0-fygfl7rvyuiteto27dlhmilp5cstw2o2/lib:/blues/gpfs/home/software/spack/opt/spack/linux-x86_64/gcc-4.4.7/gcc-5.3.0-fygfl7rvyuiteto27dlhmilp5cstw2o2/lib64 -L/blues/gpfs/home/software/spack/opt/spack/linux-x86_64/gcc-5.3.0/mpich-3.2-wraqufukmp7yzyl6a644pnmda7wkg7w7/lib -L/blues/gpfs/home/software/spack/opt/spack/linux-x86_64/gcc-4.4.7/gcc-5.3.0-fygfl7rvyuiteto27dlhmilp5cstw2o2/lib64/gcc/x86_64-unknown-linux-gnu/5.3.0 -L/blues/gpfs/home/software/spack/opt/spack/linux-x86_64/gcc-4.4.7/gcc-5.3.0-fygfl7rvyuiteto27dlhmilp5cstw2o2/lib64 -L/soft/intel/13.1.3/lib/intel64 -L/soft/intel/13.1.3/ipp/lib/intel64 -L/soft/intel/13.1.3/tbb/lib/intel64/gcc4.4 -L/soft/lcrc/lib -L/blues/gpfs/home/software/spack/opt/spack/linux-x86_64/gcc-4.4.7/gcc-5.3.0-fygfl7rvyuiteto27dlhmilp5cstw2o2/lib64 -ldl -Wl,-rpath,/blues/gpfs/home/software/spack/opt/spack/linux-x86_64/gcc-5.3.0/mpich-3.2-wraqufukmp7yzyl6a644pnmda7wkg7w7/lib -lmpi -lgcc_s -ldl 
-----------------------------------------

