s.subSiesta: Submission time = 42s17m19h
s.subSiesta: Job name = qw1024_s64_n64_c16_vesta
s.subSiesta: Number of nodes = 64
s.subSiesta: Number of cores = 1024
s.subSiesta: Number of cores/node = 16
s.subSiesta: Number of slices = 64
s.subSiesta: Mapping = ABCDET
42s17m19h
#QETSc options
-ioptbin 7
-ioptdensity 0
-ioptinertia 1
-ioptleft 2
-roptbuffer 0.1
-roptdiff 0.02
-writeeigs 1

#PETSc options
-mat_type mpisbaij
-log_view
#-mat_view
#-memory_view
#-mat_mumps_icntl_13 1 #turn off scaLAPACK for matrix inertia
#-mat_mumps_icntl_24 1 #null pivot row detection for matrix inertia
-mat_mumps_icntl_23 0
#-mat_mumps_icntl_28 1 # serial analysis
#-mat_mumps_icntl_28 2 #parallel analysis
#-mat_mumps_icntl_29 1 #ptscotch
#-mat_mumps_icntl_29 2 #parmetis
-mat_mumps_icntl_7 5 #metis
#-malloc_info 
#-mat_view ::ascii_info 
#-mat_getrow_uppertriangular 1
#-st_type sinvert 
#-st_ksp_type preonly 
#-st_pc_type cholesky 
#-st_pc_factor_mat_solver_package mumps 

#SLEPc options

#-eps_krylovschur_partitions 1  
-eps_interval -2.3,0.
#-eps_tol  1.e-8
-eps_krylovschur_detect_zeros 0
#-eps_purify 1
SystemName liquid_D2O_1024
SystemLabel D2O_1024

#UseTreeTimer .true.
DM.MixingWeight 0.3
DM.NumberPulay 3

SolutionMethod  slepc1 #slepc0 for the older method
#BlockSize 23
#MaxSCFIterations 1
WriteDM .false.
WriteDM.NetCDF .false.
WriteDMHS.NetCDF .false.
LongOutput .false.
#MaxSCFIterations 2
##################################################
# Do not change below this line                  #
##################################################

%block SuperCell
2 0 0
0 2 0
0 0 2
%endblock SuperCell

NumberOfAtoms 384
NumberOfSpecies 2

xc.functional GGA
xc.authors PBE 
MeshCutoff 150.0 Ry

%block ChemicalSpeciesLabel
  1   8  O
  2   1  H  
%endblock ChemicalSpeciesLabel

#%block AtomicMass
#  2   2.0
#%endblock AtomicMass

%Block PAO.Basis
O    3     -0.24233
n=2   0   2   E    23.36061     3.39721
     4.50769     2.64066
     1.00000     1.00000
n=2   1   2   E     2.78334     5.14253
     6.14996     2.59356
     1.00000     1.00000
n=3   2   1   E    63.98188     0.16104
     3.54403
     1.00000
H    2      0.46527
n=1   0   2   E    99.93138     2.59932
     4.20357     1.84463
     1.00000     1.00000
n=2   1   1   E    24.56504     2.20231
     3.52816
     1.00000
%EndBlock PAO.Basis

LatticeConstant 15.646046088993955 Ang
%block LatticeVectors   
  1.0  0.0  0.0
  0.0  1.0  0.0
  0.0  0.0  1.0
%endblock LatticeVectors   

AtomicCoordinatesFormat NotScaledCartesianAng
%block AtomicCoordinatesAndAtomicSpecies < coord1024.data
Siesta Version: siesta-trunk-492
Architecture  : powerpc64-unknown-linux-gnu--Xlf
Compiler flags: mpixlf90_r -I/home/keceli/scratch2/petsc/include -I/home/keceli/scratch2/petssc/arch-xl/include -I/bgsys/drivers/V1R2M4/ppc64/comm/include -I/bgsys/drivers/V1R2M4/ppc64/comm/lib/xl -I/bgsys/drivers/V1R2M4/ppc64 -I/bgsys/drivers/V1R2M4/ppc64/comm/sys/include -I/bgsys/drivers/V1R2M4/ppc64/spi/include -I/bgsys/drivers/V1R2M4/ppc64/spi/include/kernel/cnk -I/home/keceli/scratch2/slepcfork/include -I/home/keceli/scratch2/slepcfork/arch-xl/include
PP flags      : -WF,-DMPI -WF,-DFC_HAVE_ABORT -WF,-DBSC_CELLXC -WF,-DMPI_TIMING 
PARALLEL version

* Running on 1024 nodes in parallel
>> Start of run:   8-DEC-2016  19:18:34

                           ***********************       
                           *  WELCOME TO SIESTA  *       
                           ***********************       
WARNING: Siesta is reading its input from file INPUT_DEBUG

reinit: -----------------------------------------------------------------------
reinit: System Name: liquid_D2O_1024
reinit: -----------------------------------------------------------------------
reinit: System Label: D2O_1024                                                    
reinit: -----------------------------------------------------------------------

initatom: Reading input for the pseudopotentials and atomic orbitals ----------
Species number:   1 Atomic number:    8 Label: O
Species number:   2 Atomic number:    1 Label: H
 
Ground state valence configuration:   2s02  2p04
Reading pseudopotential information in formatted form from O.psf

Valence configuration for pseudopotential generation:
2s( 2.00) rc: 1.14
2p( 4.00) rc: 1.14
3d( 0.00) rc: 1.14
4f( 0.00) rc: 1.14
Ground state valence configuration:   1s01
Reading pseudopotential information in formatted form from H.psf

Valence configuration for pseudopotential generation:
1s( 0.60) rc: 1.25
2p( 0.00) rc: 1.25
3d( 0.00) rc: 1.25
4f( 0.00) rc: 1.25
For O, standard SIESTA heuristics set lmxkb to 3
 (one more than the basis l, including polarization orbitals).
Use PS.lmax or PS.KBprojectors blocks to override.
For H, standard SIESTA heuristics set lmxkb to 2
 (one more than the basis l, including polarization orbitals).
Use PS.lmax or PS.KBprojectors blocks to override.

<basis_specs>
===============================================================================
O                    Z=   8    Mass=  16.000        Charge=-0.24233    
Lmxo=2 Lmxkb= 3    BasisType=split      Semic=F
L=0  Nsemic=0  Cnfigmx=2
          n=1  nzeta=2  polorb=0
            splnorm:   0.15000    
               vcte:    23.361    
               rinn:    3.3972    
               qcoe:    0.0000    
               qyuk:    0.0000    
               qwid:   0.10000E-01
                rcs:    4.5077      2.6407    
            lambdas:    1.0000      1.0000    
L=1  Nsemic=0  Cnfigmx=2
          n=1  nzeta=2  polorb=0
            splnorm:   0.15000    
               vcte:    2.7833    
               rinn:    5.1425    
               qcoe:    0.0000    
               qyuk:    0.0000    
               qwid:   0.10000E-01
                rcs:    6.1500      2.5936    
            lambdas:    1.0000      1.0000    
L=2  Nsemic=0  Cnfigmx=3
          n=1  nzeta=1  polorb=0
            splnorm:   0.15000    
               vcte:    63.982    
               rinn:   0.16104    
               qcoe:    0.0000    
               qyuk:    0.0000    
               qwid:   0.10000E-01
                rcs:    3.5440    
            lambdas:    1.0000    
-------------------------------------------------------------------------------
L=0  Nkbl=1  erefs: 0.17977+309
L=1  Nkbl=1  erefs: 0.17977+309
L=2  Nkbl=1  erefs: 0.17977+309
L=3  Nkbl=1  erefs: 0.17977+309
===============================================================================
</basis_specs>

atom: Called for O                     (Z =   8)

read_vps: Pseudopotential generation method:
read_vps: ATM3      Troullier-Martins                       
Total valence charge:    6.00000

read_vps: Pseudopotential includes a core correction:
read_vps: Pseudo-core for xc-correction

xc_check: Exchange-correlation functional:
xc_check: GGA Perdew, Burke & Ernzerhof 1996
V l=0 = -2*Zval/r beyond r=  1.1278
V l=1 = -2*Zval/r beyond r=  1.1278
V l=2 = -2*Zval/r beyond r=  1.1278
V l=3 = -2*Zval/r beyond r=  1.1278
All V_l potentials equal beyond r=  1.1278
This should be close to max(r_c) in ps generation
All pots = -2*Zval/r beyond r=  1.1278

VLOCAL1: 99.0% of the norm of Vloc inside     34.126 Ry
VLOCAL1: 99.9% of the norm of Vloc inside     77.774 Ry
atom: Maximum radius for 4*pi*r*r*local-pseudopot. charge    1.37759
atom: Maximum radius for r*vlocal+2*Zval:    1.18566
GHOST: No ghost state for L =  0
GHOST: No ghost state for L =  1
GHOST: No ghost state for L =  2
GHOST: No ghost state for L =  3

KBgen: Kleinman-Bylander projectors: 
   l= 0   rc=  1.262145   el= -1.757696   Ekb=  9.253654   kbcos=  0.328369
   l= 1   rc=  1.262145   el= -0.664256   Ekb= -7.897175   kbcos= -0.393093
   l= 2   rc=  1.343567   el=  0.002031   Ekb= -1.922379   kbcos= -0.003517
   l= 3   rc=  1.394919   el=  0.003153   Ekb= -0.738278   kbcos= -0.000358

KBgen: Total number of  Kleinman-Bylander projectors:   16
atom: -------------------------------------------------------------------------

atom: SANKEY-TYPE ORBITALS:
atom: Selected multiple-zeta basis: split     

atom: basis set generated (by rescaling the valence charge)
atom: for an anion of charge  -0.2423

SPLIT: Orbitals with angular momentum L= 0

SPLIT: Basis orbitals for state 2s

   izeta = 1
                 lambda =    1.000000
                     rc =    4.574469
                 energy =   -1.754694
                kinetic =    1.490893
    potential(screened) =   -3.245588
       potential(ionic) =  -11.054474

   izeta = 2
                 rmatch =    2.639108
              splitnorm =    0.147036
                 energy =   -1.549986
                kinetic =    2.329570
    potential(screened) =   -3.879556
       potential(ionic) =  -12.328390

SPLIT: Orbitals with angular momentum L= 1

SPLIT: Basis orbitals for state 2p

   izeta = 1
                 lambda =    1.000000
                     rc =    6.174996
                 energy =   -0.657397
                kinetic =    4.283704
    potential(screened) =   -4.941101
       potential(ionic) =  -12.288569

   izeta = 2
                 rmatch =    2.639108
              splitnorm =    0.214885
                 energy =   -0.410839
                kinetic =    7.128014
    potential(screened) =   -7.538853
       potential(ionic) =  -16.113011

SPLIT: Orbitals with angular momentum L= 2

SPLIT: Basis orbitals for state 3d

   izeta = 1
                 lambda =    1.000000
                     rc =    3.562532
                 energy =    3.658838
                kinetic =    6.488135
    potential(screened) =   -2.829297
       potential(ionic) =  -10.001422
atom: Total number of Sankey-type orbitals: 13

atm_pop: Valence configuration (for local Pseudopot. screening):
 2s( 2.00)                                                            
 2p( 4.00)                                                            
 3d( 0.00)                                                            
Vna: chval, zval:    6.00000   6.00000

Vna:  Cut-off radius for the neutral-atom potential:   6.174996
comcore: Pseudo-core radius Rcore=  1.377587

atom: _________________________________________________________________________

<basis_specs>
===============================================================================
H                    Z=   1    Mass=  1.0100        Charge= 0.46527    
Lmxo=1 Lmxkb= 2    BasisType=split      Semic=F
L=0  Nsemic=0  Cnfigmx=1
          n=1  nzeta=2  polorb=0
            splnorm:   0.15000    
               vcte:    99.931    
               rinn:    2.5993    
               qcoe:    0.0000    
               qyuk:    0.0000    
               qwid:   0.10000E-01
                rcs:    4.2036      1.8446    
            lambdas:    1.0000      1.0000    
L=1  Nsemic=0  Cnfigmx=2
          n=1  nzeta=1  polorb=0
            splnorm:   0.15000    
               vcte:    24.565    
               rinn:    2.2023    
               qcoe:    0.0000    
               qyuk:    0.0000    
               qwid:   0.10000E-01
                rcs:    3.5282    
            lambdas:    1.0000    
-------------------------------------------------------------------------------
L=0  Nkbl=1  erefs: 0.17977+309
L=1  Nkbl=1  erefs: 0.17977+309
L=2  Nkbl=1  erefs: 0.17977+309
===============================================================================
</basis_specs>

atom: Called for H                     (Z =   1)

read_vps: Pseudopotential generation method:
read_vps: ATM 3.2.2 Troullier-Martins                       
Total valence charge:    0.60000

atom: Pseudopotential generated from an ionic configuration
atom: with net charge 0.40

xc_check: Exchange-correlation functional:
xc_check: GGA Perdew, Burke & Ernzerhof 1996
xc_check: WARNING: Pseudopotential generated with GGA revPBE functional
V l=0 = -2*Zval/r beyond r=  1.2343
V l=1 = -2*Zval/r beyond r=  1.2189
V l=2 = -2*Zval/r beyond r=  1.2189
All V_l potentials equal beyond r=  1.2343
This should be close to max(r_c) in ps generation
All pots = -2*Zval/r beyond r=  1.2343

VLOCAL1: 99.0% of the norm of Vloc inside     28.493 Ry
VLOCAL1: 99.9% of the norm of Vloc inside     64.935 Ry
atom: Maximum radius for 4*pi*r*r*local-pseudopot. charge    1.45251
atom: Maximum radius for r*vlocal+2*Zval:    1.21892
GHOST: No ghost state for L =  0
GHOST: No ghost state for L =  1
GHOST: No ghost state for L =  2

KBgen: Kleinman-Bylander projectors: 
   l= 0   rc=  1.364359   el= -0.835481   Ekb= -2.050473   kbcos= -0.374935
   l= 1   rc=  1.434438   el= -0.083696   Ekb= -0.439790   kbcos= -0.040392
   l= 2   rc=  1.470814   el= -0.018512   Ekb= -0.135383   kbcos= -0.004767

KBgen: Total number of  Kleinman-Bylander projectors:    9
atom: -------------------------------------------------------------------------

atom: SANKEY-TYPE ORBITALS:
atom: Selected multiple-zeta basis: split     

atom: basis set generated (by rescaling the valence charge)
atom: for a cation of charge   0.4653

SPLIT: Orbitals with angular momentum L= 0

SPLIT: Basis orbitals for state 1s

   izeta = 1
                 lambda =    1.000000
                     rc =    4.260636
                 energy =   -0.844786
                kinetic =    1.360018
    potential(screened) =   -2.204804
       potential(ionic) =   -2.290935

   izeta = 2
                 rmatch =    1.865767
              splitnorm =    0.575404
                 energy =    0.510436
                kinetic =    4.363202
    potential(screened) =   -3.852766
       potential(ionic) =   -3.849391

SPLIT: Orbitals with angular momentum L= 1

SPLIT: Basis orbitals for state 2p

   izeta = 1
                 lambda =    1.000000
                     rc =    3.576223
                 energy =    0.852340
                kinetic =    2.004908
    potential(screened) =   -1.152567
       potential(ionic) =   -1.298457
atom: Total number of Sankey-type orbitals:  5

atm_pop: Valence configuration (for local Pseudopot. screening):
 1s( 1.00)                                                            
 2p( 0.00)                                                            
Vna: chval, zval:    1.00000   1.00000

Vna:  Cut-off radius for the neutral-atom potential:   4.260636

atom: _________________________________________________________________________

prinput: Basis input ----------------------------------------------------------

PAO.BasisType split     

%block ChemicalSpeciesLabel
    1    8 O                       # Species index, atomic number, species label
    2    1 H                       # Species index, atomic number, species label
%endblock ChemicalSpeciesLabel

%block PAO.Basis                 # Define Basis set
O                     3  -0.242            # Label, l-shells, ionic net charge
 n=2   0   2                         # n, l, Nzeta 
   4.574      2.639   
   1.000      1.000   
 n=2   1   2                         # n, l, Nzeta 
   6.175      2.639   
   1.000      1.000   
 n=3   2   1                         # n, l, Nzeta 
   3.563   
   1.000   
H                     2   0.465            # Label, l-shells, ionic net charge
 n=1   0   2                         # n, l, Nzeta 
   4.261      1.866   
   1.000      1.000   
 n=2   1   1                         # n, l, Nzeta 
   3.576   
   1.000   
%endblock PAO.Basis

prinput: ----------------------------------------------------------------------

coor:   Atomic-coordinates input format  =     Cartesian coordinates
coor:                                          (in Angstroms)

siesta: Atomic coordinates (Bohr) and species
siesta:     26.49397   0.45353   4.66763  1        1
siesta:     26.96640   1.47399   3.25033  2        2
siesta:     25.77587   1.62517   5.85815  2        3
siesta:     20.33346  14.00288  21.97752  1        4
siesta:     21.22163  14.47531  20.46574  2        5
siesta:     18.59491  14.07847  21.50509  2        6
siesta:     11.07380   3.60938  13.00132  1        7
siesta:     11.41395   5.36682  12.83125  2        8
siesta:     11.58403   2.89128  11.43285  2        9
siesta:     14.09736  13.00132  25.01998  1       10
siesta:     14.15405  13.00132  26.83412  2       11
siesta:     13.53044  11.33836  24.56645  2       12
siesta:     17.17762   8.63605  20.03110  1       13
siesta:     16.83747   9.24076  18.34925  2       14
siesta:     18.95396   8.86282  20.23897  2       15
siesta:     22.75231   1.79524   9.37305  1       16
siesta:     21.27832   2.30547   8.48487  2       17
siesta:     23.45151   3.32592  10.03445  2       18
siesta:     27.17427  25.60580  26.85302  1       19
siesta:     28.61046  25.54911  27.94906  2       20
siesta:     27.57112  24.43417  25.53021  2       21
siesta:     24.09402  25.03888   4.02512  1       22
siesta:     23.67828  24.96329   2.26767  2       23
siesta:     24.75542  26.70184   4.28968  2       24
siesta:     28.81833  16.93195   4.57314  1       25
siesta:     29.17738  18.65160   4.13850  2       26
siesta:     29.02620  16.00599   3.04246  2       27
siesta:      3.17474   7.14317  26.24831  1       28
siesta:      1.79524   7.97465  25.45462  2       29
siesta:      4.62983   8.12583  25.81367  2       30
siesta:      1.56847   2.39995  27.68450  1       31
siesta:      0.15118   1.90862  26.68294  2       32
siesta:      2.22988   3.85504  26.85302  2       33
siesta:     21.97752   5.87705  29.00731  1       34
siesta:     21.33502   4.25189  28.51598  2       35
siesta:     21.18384   7.02978  27.87347  2       36
siesta:      2.81569  25.05778  28.47818  1       37
siesta:      3.53379  25.98374  29.85768  2       38
siesta:      3.38261  23.35702  28.74275  2       39
siesta:      2.05980   4.45976  19.10514  1       40
siesta:      0.77479   4.66763  17.83902  2       41
siesta:      3.36371   5.61249  18.61381  2       42
siesta:      9.12738  25.19006  29.38525  1       43
siesta:     10.37460  24.79322  28.13803  2       44
siesta:      7.54001  24.81211  28.59157  2       45
siesta:     20.99487   3.64717  16.91306  1       46
siesta:     19.33191   3.02356  17.30990  2       47
siesta:     21.78855   3.83615  18.51932  2       48
siesta:      2.04091  15.04223  21.58068  1       49
siesta:      1.11494  13.51155  21.42950  2       50
siesta:      2.47554  15.13671  23.33813  2       51
siesta:     16.47842   9.58092   2.28657  1       52
siesta:     17.95241   9.54312   3.34482  2       53
siesta:     16.74298  10.97931   1.19053  2       54
siesta:     25.90816   8.05024   4.72432  1       55
siesta:     26.00264   7.02978   6.21720  2       56
siesta:     26.55066   6.99199   3.40151  2       57
siesta:     10.56357  15.04223  21.08935  1       58
siesta:     12.32102  14.72097  21.37281  2       59
siesta:      9.80768  13.41706  21.08935  2       60
siesta:      7.97465  10.88483  12.77455  1       61
siesta:      7.02978   9.93996  11.56513  2       62
siesta:      7.36993  10.33681  14.38082  2       63
siesta:      2.30547  13.43596   7.38883  1       64
siesta:      1.58737  14.41862   6.04713  2       65
siesta:      2.83459  14.64538   8.61715  2       66
siesta:     12.66117   3.38261   7.67229  1       67
siesta:     12.30212   2.05980   6.50066  2       68
siesta:     12.49109   4.91329   6.70853  2       69
siesta:     26.55066   6.27389   9.44863  1       70
siesta:     25.43572   7.59670   9.95886  2       71
siesta:     28.19473   6.99199   9.59981  2       72
siesta:      7.89906   4.51645   3.28812  1       73
siesta:      8.86282   3.19364   4.06291  2       74
siesta:      6.29279   3.74166   2.91018  2       75
siesta:     28.85613  22.79011   3.74166  1       76
siesta:     27.43883  23.79166   4.25189  2       77
siesta:     30.29232  23.82946   4.08181  2       78
siesta:     15.38238  23.18695   9.52422  1       79
siesta:     16.47842  22.63893  10.84703  2       80
siesta:     16.47842  23.82946   8.23921  2       81
siesta:     23.64048  15.23120  17.51777  1       82
siesta:     24.35858  13.64383  17.08313  2       83
siesta:     24.45307  16.42173  16.42173  2       84
siesta:     23.45151   9.97776  10.90372  1       85
siesta:     21.73186   9.46753  11.13049  2       86
siesta:     23.39482  11.77300  11.01711  2       87
siesta:     11.01711   5.66918  18.25476  1       88
siesta:     11.41395   5.40462  16.49732  2       89
siesta:     11.09270   4.02512  18.97286  2       90
siesta:     22.35547  25.05778  19.72875  1       91
siesta:     21.20274  24.71763  21.08935  2       92
siesta:     23.43261  23.62159  19.67206  2       93
siesta:     21.76965  16.79967  27.74119  1       94
siesta:     21.46730  17.95241  26.38059  2       95
siesta:     22.80900  17.72564  28.89392  2       96
siesta:     21.59958  19.29411  23.22474  1       97
siesta:     20.42795  18.14138  22.44996  2       98
siesta:     23.22474  18.50043  22.99798  2       99
siesta:     20.22008   7.36993   4.81880  1      100
siesta:     21.71296   8.22031   5.40462  2      101
siesta:     20.71141   6.61404   3.25033  2      102
siesta:     16.42173   1.88973   2.19208  1      103
siesta:     15.79812   3.17474   1.07714  2      104
siesta:     14.94774   1.09604   2.85349  2      105
siesta:      8.46598  10.63916   3.53379  1      106
siesta:      9.24076  10.97931   1.94642  2      107
siesta:      8.84392  12.09425   4.55424  2      108
siesta:     17.10203  15.02333  29.66871  1      109
siesta:     15.89260  16.04378  28.76164  2      110
siesta:     18.70830  15.53355  29.02620  2      111
siesta:      5.78256   4.19519  12.35881  1      112
siesta:      4.89439   2.60782  12.32102  2      113
siesta:      7.48332   3.74166  12.73676  2      114
siesta:     14.04067  22.35547  16.95085  1      115
siesta:     13.34147  20.74920  16.49732  2      116
siesta:     14.17295  23.24364  15.38238  2      117
siesta:      8.42818  16.00599  26.19161  1      118
siesta:      6.76522  15.32568  26.45618  2      119
siesta:      9.01400  15.15561  24.69873  2      120
siesta:     -0.20787  22.35547  23.26254  1      121
siesta:      1.51178  22.52554  22.77121  2      122
siesta:     -1.02045  21.63737  21.82635  2      123
siesta:      1.49288   8.88172   9.33525  1      124
siesta:      1.92752  10.54468   8.76833  2      125
siesta:      3.00467   7.91796   9.16518  2      126
siesta:      4.81880  22.56334   8.10693  1      127
siesta:      4.83770  20.78700   7.78567  2      128
siesta:      5.78256  23.26254   6.74632  2      129
siesta:     16.72408   3.28812  20.10669  1      130
siesta:     16.62960   5.08337  20.06890  2      131
siesta:     15.02333   2.72121  19.86103  2      132
siesta:     29.91438  14.09736  14.75877  1      133
siesta:     29.08290  12.54779  15.13671  2      134
siesta:     28.61046  15.34458  14.85325  2      135
siesta:      8.18252  27.43883  18.78389  1      136
siesta:      6.40617  27.60891  19.02955  2      137
siesta:      8.42818  25.71918  18.31145  2      138
siesta:     27.77899   6.23610  21.73186  1      139
siesta:     29.21518   5.57469  20.86258  2      140
siesta:     27.11758   4.83770  22.65783  2      141
siesta:     29.68761  13.09581   1.07714  1      142
siesta:     28.15693  12.39661   0.39684  2      143
siesta:     30.65137  11.65961   1.58737  2      144
siesta:     19.40750  24.11291  24.01843  1      145
siesta:     17.87682  24.58535  23.16805  2      146
siesta:     19.27521  22.33657  24.22630  2      147
siesta:     23.75387  12.45330   3.68497  1      148
siesta:     23.79166  13.81390   4.87550  2      149
siesta:     24.67983  11.13049   4.47865  2      150
siesta:     22.29878  21.18384   9.01400  1      151
siesta:     20.93817  20.82479  10.16673  2      152
siesta:     21.97752  22.88459   8.46598  2      153
siesta:      6.85971  10.67696  25.98374  1      154
siesta:      7.23765  10.31791  24.26409  2      155
siesta:      8.06913   9.71320  26.92861  2      156
siesta:     13.13360  18.44373  28.89392  1      157
siesta:     11.50844  18.34925  28.11914  2      158
siesta:     12.98242  19.76654  30.12225  2      159
siesta:     26.19161   2.75900  25.09557  1      160
siesta:     24.45307   3.23143  24.90660  2      161
siesta:     26.49397   1.62517  23.71607  2      162
siesta:      8.46598  22.33657   4.53534  1      163
siesta:      7.86126  20.80589   3.76056  2      164
siesta:      8.22031  23.60269   3.26923  2      165
siesta:     25.37903  10.71475  16.27055  1      166
siesta:     24.45307   9.67540  17.42328  2      167
siesta:     24.81211  10.18563  14.62649  2      168
siesta:     20.50354   0.94486  23.43261  1      169
siesta:     19.97441   1.02045  25.15226  2      170
siesta:     19.10514   1.58737  22.48775  2      171
siesta:     14.02177   7.88016  24.11291  1      172
siesta:     15.04223   8.50377  22.75231  2      173
siesta:     13.36037   6.31169  23.50820  2      174
siesta:     11.71631  17.83902  16.93195  1      175
siesta:     10.96042  17.36659  18.51932  2      176
siesta:     10.60137  17.15872  15.68473  2      177
siesta:     17.65005   4.08181   8.08803  1      178
siesta:     17.97130   5.32903   6.80302  2      179
siesta:     15.85481   4.08181   8.25811  2      180
siesta:      6.51956  17.83902   2.72121  1      181
siesta:      5.65028  16.28945   3.04246  2      182
siesta:      5.97154  18.33035   1.07714  2      183
siesta:     18.57602  20.69251  13.19029  1      184
siesta:     18.25476  19.50198  14.51310  2      185
siesta:     18.57602  22.29878  14.02177  2      186
siesta:      3.42041  26.90971   4.25189  1      187
siesta:      4.38417  28.30811   4.89439  2      188
siesta:      2.04091  26.73964   5.40462  2      189
siesta:     29.19628  28.76164  14.77766  1      190
siesta:     28.13803  27.34435  14.49421  2      191
siesta:     30.21673  28.30811  16.19496  2      192
siesta:     12.73676  26.24831  13.19029  1      193
siesta:     13.60603  27.83568  13.11470  2      194
siesta:     13.03912  25.49242  11.56513  2      195
siesta:     26.26720  24.86881  12.83125  1      196
siesta:     24.62314  24.47196  12.18874  2      197
siesta:     27.36325  23.71607  11.96197  2      198
siesta:     11.24387  13.56824  29.70651  1      199
siesta:     12.50999  14.85325  29.91438  2      200
siesta:     10.05335  14.30523  28.55377  2      201
siesta:     22.58224  24.33968  28.49708  1      202
siesta:     21.37281  24.35858  27.13648  2      203
siesta:     24.15071  24.77432  27.70340  2      204
siesta:     11.82969   0.90707  20.59802  1      205
siesta:     11.30057   0.96376  22.33657  2      206
siesta:     10.73365  -0.32125  19.82323  2      207
siesta:      2.66451   4.34637   3.57158  1      208
siesta:      2.34326   6.10382   3.72276  2      209
siesta:      2.38106   3.96843   1.83304  2      210
siesta:     28.96951  18.34925  27.59001  1      211
siesta:     28.04355  18.51932  26.04044  2      212
siesta:     27.76009  18.67050  28.87503  2      213
siesta:      7.76678  25.64359  11.73520  1      214
siesta:      9.16518  26.32390  12.64227  2      215
siesta:      8.16362  23.88615  11.54623  2      216
siesta:     21.33502  26.60735  10.48798  1      217
siesta:     21.37281  26.66405  12.28322  2      218
siesta:     22.22319  28.08134   9.95886  2      219
siesta:      4.83770  10.43129  17.66895  1      220
siesta:      4.30858  12.15094  17.70674  2      221
siesta:      3.45820   9.54312  16.89416  2      222
siesta:      6.84081   7.82347   8.69274  1      223
siesta:      6.55735   6.33059   9.65650  2      224
siesta:      7.40773   7.21876   7.08648  2      225
siesta:     17.04534  10.56357  15.36348  1      226
siesta:     18.46263   9.69430  14.64538  2      227
siesta:     15.62804   9.99666  14.39972  2      228
siesta:     26.43728  28.11914  21.73186  1      229
siesta:     26.39948  27.74119  23.48931  2      230
siesta:     24.92550  27.36325  21.07045  2      231
siesta:     20.40905   1.05825  28.81833  1      232
siesta:     19.19963   1.53068  30.08445  2      233
siesta:     20.54133  -0.73699  28.96951  2      234
siesta:      9.78879  14.73987   6.16051  1      235
siesta:      9.46753  16.02488   4.93219  2      236
siesta:     11.56513  14.89105   6.50066  2      237
siesta:     24.49086  19.29411   1.28501  1      238
siesta:     23.92394  18.42484   2.77790  2      239
siesta:     24.58535  21.03266   1.79524  2      240
siesta:     24.37748  16.51621   7.16206  1      241
siesta:     26.07823  16.74298   6.55735  2      242
siesta:     23.71607  18.19807   7.31324  2      243
siesta:     15.15561  25.53021  21.63737  1      244
siesta:     14.75877  27.28766  21.35391  2      245
siesta:     15.21230  24.81211  19.97441  2      246
siesta:      3.26923  14.89105  26.55066  1      247
siesta:      2.68341  13.19029  26.58846  2      248
siesta:      2.11649  15.79812  27.57112  2      249
siesta:      0.86927   7.99354  15.09892  1      250
siesta:      1.20943   8.73054  13.47375  2      251
siesta:     -0.83148   7.44552  15.00443  2      252
siesta:      9.03289   6.42507  28.25142  1      253
siesta:      8.29590   5.99043  29.83879  2      254
siesta:     10.80924   6.21720  28.49708  2      255
siesta:     29.17738  11.18718  24.15071  1      256
siesta:     28.47818   9.82658  23.18695  2      257
siesta:     27.98686  11.47064  25.47352  2      258
siesta:     10.88483  26.15382   7.69119  1      259
siesta:     10.60137  24.39637   7.40773  2      260
siesta:      9.88327  26.53177   9.16518  2      261
siesta:     19.74765   9.88327  25.88926  1      262
siesta:     19.06734  11.31946  25.01998  2      263
siesta:     21.03266  10.56357  26.94751  2      264
siesta:      4.00622  20.01221  28.44039  1      265
siesta:      4.96998  18.99176  27.28766  2      266
siesta:      2.28657  19.70985  27.98686  2      267
siesta:     18.40594  24.47196   5.36682  1      268
siesta:     20.08780  23.82946   5.21565  2      269
siesta:     18.10358  25.32234   3.77945  2      270
siesta:     26.62625  18.10358  14.28634  1      271
siesta:     27.81678  19.29411  13.60603  2      272
siesta:     25.62470  17.61225  12.86904  2      273
siesta:      5.17785  28.87503  24.90660  1      274
siesta:      3.93063  28.28921  23.73497  2      275
siesta:      4.21409  29.61202  26.24831  2      276
siesta:      2.94797  20.65471  17.06423  1      277
siesta:      3.91173  21.33502  18.42484  2      278
siesta:      3.55269  18.95396  16.87526  2      279
siesta:      0.88817  21.37281  12.16984  1      280
siesta:      1.90862  22.29878  10.99821  2      281
siesta:      1.70075  21.61848  13.75721  2      282
siesta:      3.72276  17.61225  10.11004  1      283
siesta:      5.17785  17.36659  11.16829  2      284
siesta:      2.41885  18.14138  11.22498  2      285
siesta:      9.42974   2.58893  24.71763  1      286
siesta:      8.08803   1.37950  24.75542  2      287
siesta:      8.88172   3.89284  25.85146  2      288
siesta:      8.86282  20.69251  11.11159  1      289
siesta:      7.69119  20.69251   9.75099  2      290
siesta:      8.65495  19.04845  11.86748  2      291
siesta:     12.32102   8.03134   5.51800  1      292
siesta:     13.51155   8.27700   4.17630  2      293
siesta:     10.84703   8.91951   4.95108  2      294
siesta:      9.01400  20.67361  22.14760  1      295
siesta:      8.65495  21.80745  20.78700  2      296
siesta:      9.16518  19.04845  21.35391  2      297
siesta:     16.93195   0.52912  12.71786  1      298
siesta:     16.70519   2.02201  11.71631  2      299
siesta:     18.00910  -0.52912  11.71631  2      300
siesta:      9.27856   9.59981  20.93817  1      301
siesta:      7.55891   9.84548  20.40905  2      302
siesta:      9.76989   8.05024  20.12559  2      303
siesta:      3.15584   9.58092   3.38261  1      304
siesta:      2.66451   9.90217   5.10226  2      305
siesta:      4.85660  10.20453   3.26923  2      306
siesta:     13.85170  21.58068   4.04402  1      307
siesta:     15.25010  22.33657   4.87550  2      308
siesta:     12.39661  22.39326   4.76211  2      309
siesta:     26.02154  17.00754  21.80745  1      310
siesta:     27.62781  16.21386  22.09091  2      311
siesta:     25.41683  16.27055  20.27677  2      312
siesta:     26.58846  21.86414  18.25476  1      313
siesta:     26.70184  20.29567  17.36659  2      314
siesta:     26.55066  23.11136  16.95085  2      315
siesta:      2.21098  28.74275  20.10669  1      316
siesta:      0.43464  28.55377  20.44684  2      317
siesta:      2.49444  30.51909  20.23897  2      318
siesta:     11.73520  23.28144  25.60580  1      319
siesta:     10.75255  22.07201  24.67983  2      320
siesta:     12.88794  23.98063  24.37748  2      321
siesta:     25.22785  11.58403  28.17583  1      322
siesta:     24.62314  13.26588  28.00575  2      323
siesta:     24.45307  10.96042  29.66871  2      324
siesta:     27.00420   3.77945  16.32724  1      325
siesta:     27.98686   2.72121  15.25010  2      326
siesta:     25.32234   3.70386  15.64694  2      327
siesta:     14.30523   6.25500  28.83723  1      328
siesta:     15.19340   7.52111  29.76320  2      329
siesta:     14.15405   6.93530  27.17427  2      330
siesta:      4.93219  24.26409  21.05156  1      331
siesta:      3.85504  25.70029  20.76810  2      332
siesta:      5.95264  24.73652  22.44996  2      333
siesta:     17.72564  18.08469   4.06291  1      334
siesta:     17.53667  16.98864   2.62672  2      335
siesta:     16.45952  19.35080   3.83615  2      336
siesta:     18.06579  14.68318  12.85014  1      337
siesta:     17.47997  13.43596  14.02177  2      338
siesta:     17.02644  14.45641  11.37616  2      339
siesta:      5.61249   1.24722   6.87861  1      340
siesta:      4.89439   2.81569   6.31169  2      341
siesta:      4.72432   0.85038   8.39039  2      342
siesta:      4.34637  15.85481  16.96975  1      343
siesta:      3.70386  15.83591  18.67050  2      344
siesta:      3.04246  15.13671  15.96819  2      345
siesta:     12.45330   8.97620  12.33992  1      346
siesta:     10.84703   9.73209  12.66117  2      347
siesta:     12.69896   9.18407  10.56357  2      348
siesta:     22.37437   9.14628  19.86103  1      349
siesta:     22.43106  10.37460  21.20274  2      350
siesta:     23.43261   7.80457  20.42795  2      351
siesta:     14.62649  15.96819   8.40928  1      352
siesta:     13.09581  16.79967   8.90061  2      353
siesta:     15.38238  17.08313   7.21876  2      354
siesta:      0.01890  27.23096   8.12583  1      355
siesta:      0.94486  28.17583   9.35415  2      356
siesta:     -0.96376  28.47818   7.23765  2      357
siesta:      8.82502  22.63893  17.02644  1      358
siesta:      8.48487  22.97908  15.28789  2      359
siesta:     10.60137  22.86570  17.19651  2      360
siesta:     15.81701  10.62027   8.01244  1      361
siesta:     14.58869   9.95886   6.85971  2      362
siesta:     15.81701  12.39661   7.72898  2      363
siesta:     11.50844  29.47974   4.15740  1      364
siesta:     10.97931  28.78054   2.57003  2      365
siesta:     11.01711  28.25142   5.38572  2      366
siesta:     19.38860  25.56800  15.51466  1      367
siesta:     20.18228  25.39793  17.12093  2      368
siesta:     19.12404  27.34435  15.32568  2      369
siesta:     23.26254  15.04223  11.75410  1      370
siesta:     21.56178  15.17451  12.32102  2      371
siesta:     23.16805  15.30679   9.95886  2      372
siesta:     19.10514   7.84237  10.99821  1      373
siesta:     18.67050   6.40617   9.97776  2      374
siesta:     18.16028   9.20297  10.28011  2      375
siesta:     26.62625   4.04402   1.28501  1      376
siesta:     24.92550   4.08181   0.66140  2      377
siesta:     27.60891   3.32592  -0.05669  2      378
siesta:      3.32592  29.34746  11.67851  1      379
siesta:      4.64873  28.19473  12.15094  2      380
siesta:      1.88973  28.81833  12.64227  2      381
siesta:      8.10693  16.10047  13.19029  1      382
siesta:      6.97309  16.51621  14.53200  2      383
siesta:      8.06913  14.28634  13.13360  2      384
siesta:     56.06072   0.45353   4.66763  1      385
siesta:     56.53316   1.47399   3.25033  2      386
siesta:     55.34263   1.62517   5.85815  2      387
siesta:     49.90022  14.00288  21.97752  1      388
siesta:     50.78839  14.47531  20.46574  2      389
siesta:     48.16167  14.07847  21.50509  2      390
siesta:     40.64055   3.60938  13.00132  1      391
siesta:     40.98070   5.36682  12.83125  2      392
siesta:     41.15078   2.89128  11.43285  2      393
siesta:     43.66412  13.00132  25.01998  1      394
siesta:     43.72081  13.00132  26.83412  2      395
siesta:     43.09720  11.33836  24.56645  2      396
siesta:     46.74437   8.63605  20.03110  1      397
siesta:     46.40422   9.24076  18.34925  2      398
siesta:     48.52071   8.86282  20.23897  2      399
siesta:     52.31907   1.79524   9.37305  1      400
siesta:     50.84508   2.30547   8.48487  2      401
siesta:     53.01826   3.32592  10.03445  2      402
siesta:     56.74103  25.60580  26.85302  1      403
siesta:     58.17722  25.54911  27.94906  2      404
siesta:     57.13787  24.43417  25.53021  2      405
siesta:     53.66077  25.03888   4.02512  1      406
siesta:     53.24503  24.96329   2.26767  2      407
siesta:     54.32218  26.70184   4.28968  2      408
siesta:     58.38509  16.93195   4.57314  1      409
siesta:     58.74414  18.65160   4.13850  2      410
siesta:     58.59296  16.00599   3.04246  2      411
siesta:     32.74149   7.14317  26.24831  1      412
siesta:     31.36199   7.97465  25.45462  2      413
siesta:     34.19658   8.12583  25.81367  2      414
siesta:     31.13523   2.39995  27.68450  1      415
siesta:     29.71793   1.90862  26.68294  2      416
siesta:     31.79663   3.85504  26.85302  2      417
siesta:     51.54428   5.87705  29.00731  1      418
siesta:     50.90177   4.25189  28.51598  2      419
siesta:     50.75059   7.02978  27.87347  2      420
siesta:     32.38245  25.05778  28.47818  1      421
siesta:     33.10054  25.98374  29.85768  2      422
siesta:     32.94936  23.35702  28.74275  2      423
siesta:     31.62656   4.45976  19.10514  1      424
siesta:     30.34154   4.66763  17.83902  2      425
siesta:     32.93047   5.61249  18.61381  2      426
siesta:     38.69413  25.19006  29.38525  1      427
siesta:     39.94135  24.79322  28.13803  2      428
siesta:     37.10676  24.81211  28.59157  2      429
siesta:     50.56162   3.64717  16.91306  1      430
siesta:     48.89866   3.02356  17.30990  2      431
siesta:     51.35530   3.83615  18.51932  2      432
siesta:     31.60766  15.04223  21.58068  1      433
siesta:     30.68169  13.51155  21.42950  2      434
siesta:     32.04230  15.13671  23.33813  2      435
siesta:     46.04517   9.58092   2.28657  1      436
siesta:     47.51916   9.54312   3.34482  2      437
siesta:     46.30973  10.97931   1.19053  2      438
siesta:     55.47491   8.05024   4.72432  1      439
siesta:     55.56940   7.02978   6.21720  2      440
siesta:     56.11742   6.99199   3.40151  2      441
siesta:     40.13033  15.04223  21.08935  1      442
siesta:     41.88777  14.72097  21.37281  2      443
siesta:     39.37444  13.41706  21.08935  2      444
siesta:     37.54140  10.88483  12.77455  1      445
siesta:     36.59654   9.93996  11.56513  2      446
siesta:     36.93669  10.33681  14.38082  2      447
siesta:     31.87222  13.43596   7.38883  1      448
siesta:     31.15412  14.41862   6.04713  2      449
siesta:     32.40134  14.64538   8.61715  2      450
siesta:     42.22792   3.38261   7.67229  1      451
siesta:     41.86888   2.05980   6.50066  2      452
siesta:     42.05785   4.91329   6.70853  2      453
siesta:     56.11742   6.27389   9.44863  1      454
siesta:     55.00248   7.59670   9.95886  2      455
siesta:     57.76148   6.99199   9.59981  2      456
siesta:     37.46581   4.51645   3.28812  1      457
siesta:     38.42957   3.19364   4.06291  2      458
siesta:     35.85954   3.74166   2.91018  2      459
siesta:     58.42288  22.79011   3.74166  1      460
siesta:     57.00559  23.79166   4.25189  2      461
siesta:     59.85908  23.82946   4.08181  2      462
siesta:     44.94913  23.18695   9.52422  1      463
siesta:     46.04517  22.63893  10.84703  2      464
siesta:     46.04517  23.82946   8.23921  2      465
siesta:     53.20724  15.23120  17.51777  1      466
siesta:     53.92533  13.64383  17.08313  2      467
siesta:     54.01982  16.42173  16.42173  2      468
siesta:     53.01826   9.97776  10.90372  1      469
siesta:     51.29861   9.46753  11.13049  2      470
siesta:     52.96157  11.77300  11.01711  2      471
siesta:     40.58386   5.66918  18.25476  1      472
siesta:     40.98070   5.40462  16.49732  2      473
siesta:     40.65945   4.02512  18.97286  2      474
siesta:     51.92222  25.05778  19.72875  1      475
siesta:     50.76949  24.71763  21.08935  2      476
siesta:     52.99937  23.62159  19.67206  2      477
siesta:     51.33641  16.79967  27.74119  1      478
siesta:     51.03405  17.95241  26.38059  2      479
siesta:     52.37576  17.72564  28.89392  2      480
siesta:     51.16633  19.29411  23.22474  1      481
siesta:     49.99470  18.14138  22.44996  2      482
siesta:     52.79150  18.50043  22.99798  2      483
siesta:     49.78683   7.36993   4.81880  1      484
siesta:     51.27972   8.22031   5.40462  2      485
siesta:     50.27816   6.61404   3.25033  2      486
siesta:     45.98848   1.88973   2.19208  1      487
siesta:     45.36487   3.17474   1.07714  2      488
siesta:     44.51449   1.09604   2.85349  2      489
siesta:     38.03273  10.63916   3.53379  1      490
siesta:     38.80752  10.97931   1.94642  2      491
siesta:     38.41068  12.09425   4.55424  2      492
siesta:     46.66878  15.02333  29.66871  1      493
siesta:     45.45936  16.04378  28.76164  2      494
siesta:     48.27505  15.53355  29.02620  2      495
siesta:     35.34932   4.19519  12.35881  1      496
siesta:     34.46115   2.60782  12.32102  2      497
siesta:     37.05007   3.74166  12.73676  2      498
siesta:     43.60742  22.35547  16.95085  1      499
siesta:     42.90823  20.74920  16.49732  2      500
siesta:     43.73971  23.24364  15.38238  2      501
siesta:     37.99494  16.00599  26.19161  1      502
siesta:     36.33198  15.32568  26.45618  2      503
siesta:     38.58075  15.15561  24.69873  2      504
siesta:     29.35888  22.35547  23.26254  1      505
siesta:     31.07854  22.52554  22.77121  2      506
siesta:     28.54630  21.63737  21.82635  2      507
siesta:     31.05964   8.88172   9.33525  1      508
siesta:     31.49428  10.54468   8.76833  2      509
siesta:     32.57142   7.91796   9.16518  2      510
siesta:     34.38556  22.56334   8.10693  1      511
siesta:     34.40445  20.78700   7.78567  2      512
siesta:     35.34932  23.26254   6.74632  2      513
siesta:     46.29084   3.28812  20.10669  1      514
siesta:     46.19635   5.08337  20.06890  2      515
siesta:     44.59008   2.72121  19.86103  2      516
siesta:     59.48113  14.09736  14.75877  1      517
siesta:     58.64965  12.54779  15.13671  2      518
siesta:     58.17722  15.34458  14.85325  2      519
siesta:     37.74927  27.43883  18.78389  1      520
siesta:     35.97293  27.60891  19.02955  2      521
siesta:     37.99494  25.71918  18.31145  2      522
siesta:     57.34574   6.23610  21.73186  1      523
siesta:     58.78193   5.57469  20.86258  2      524
siesta:     56.68433   4.83770  22.65783  2      525
siesta:     59.25436  13.09581   1.07714  1      526
siesta:     57.72368  12.39661   0.39684  2      527
siesta:     60.21812  11.65961   1.58737  2      528
siesta:     48.97425  24.11291  24.01843  1      529
siesta:     47.44357  24.58535  23.16805  2      530
siesta:     48.84197  22.33657  24.22630  2      531
siesta:     53.32062  12.45330   3.68497  1      532
siesta:     53.35842  13.81390   4.87550  2      533
siesta:     54.24659  11.13049   4.47865  2      534
siesta:     51.86553  21.18384   9.01400  1      535
siesta:     50.50493  20.82479  10.16673  2      536
siesta:     51.54428  22.88459   8.46598  2      537
siesta:     36.42646  10.67696  25.98374  1      538
siesta:     36.80441  10.31791  24.26409  2      539
siesta:     37.63589   9.71320  26.92861  2      540
siesta:     42.70036  18.44373  28.89392  1      541
siesta:     41.07519  18.34925  28.11914  2      542
siesta:     42.54918  19.76654  30.12225  2      543
siesta:     55.75837   2.75900  25.09557  1      544
siesta:     54.01982   3.23143  24.90660  2      545
siesta:     56.06072   1.62517  23.71607  2      546
siesta:     38.03273  22.33657   4.53534  1      547
siesta:     37.42802  20.80589   3.76056  2      548
siesta:     37.78707  23.60269   3.26923  2      549
siesta:     54.94579  10.71475  16.27055  1      550
siesta:     54.01982   9.67540  17.42328  2      551
siesta:     54.37887  10.18563  14.62649  2      552
siesta:     50.07029   0.94486  23.43261  1      553
siesta:     49.54117   1.02045  25.15226  2      554
siesta:     48.67189   1.58737  22.48775  2      555
siesta:     43.58853   7.88016  24.11291  1      556
siesta:     44.60898   8.50377  22.75231  2      557
siesta:     42.92712   6.31169  23.50820  2      558
siesta:     41.28306  17.83902  16.93195  1      559
siesta:     40.52717  17.36659  18.51932  2      560
siesta:     40.16812  17.15872  15.68473  2      561
siesta:     47.21680   4.08181   8.08803  1      562
siesta:     47.53806   5.32903   6.80302  2      563
siesta:     45.42156   4.08181   8.25811  2      564
siesta:     36.08631  17.83902   2.72121  1      565
siesta:     35.21704  16.28945   3.04246  2      566
siesta:     35.53829  18.33035   1.07714  2      567
siesta:     48.14277  20.69251  13.19029  1      568
siesta:     47.82152  19.50198  14.51310  2      569
siesta:     48.14277  22.29878  14.02177  2      570
siesta:     32.98716  26.90971   4.25189  1      571
siesta:     33.95092  28.30811   4.89439  2      572
siesta:     31.60766  26.73964   5.40462  2      573
siesta:     58.76303  28.76164  14.77766  1      574
siesta:     57.70479  27.34435  14.49421  2      575
siesta:     59.78349  28.30811  16.19496  2      576
siesta:     42.30351  26.24831  13.19029  1      577
siesta:     43.17279  27.83568  13.11470  2      578
siesta:     42.60587  25.49242  11.56513  2      579
siesta:     55.83396  24.86881  12.83125  1      580
siesta:     54.18990  24.47196  12.18874  2      581
siesta:     56.93000  23.71607  11.96197  2      582
siesta:     40.81063  13.56824  29.70651  1      583
siesta:     42.07675  14.85325  29.91438  2      584
siesta:     39.62010  14.30523  28.55377  2      585
siesta:     52.14899  24.33968  28.49708  1      586
siesta:     50.93956  24.35858  27.13648  2      587
siesta:     53.71746  24.77432  27.70340  2      588
siesta:     41.39644   0.90707  20.59802  1      589
siesta:     40.86732   0.96376  22.33657  2      590
siesta:     40.30040  -0.32125  19.82323  2      591
siesta:     32.23127   4.34637   3.57158  1      592
siesta:     31.91002   6.10382   3.72276  2      593
siesta:     31.94781   3.96843   1.83304  2      594
siesta:     58.53627  18.34925  27.59001  1      595
siesta:     57.61030  18.51932  26.04044  2      596
siesta:     57.32684  18.67050  28.87503  2      597
siesta:     37.33353  25.64359  11.73520  1      598
siesta:     38.73193  26.32390  12.64227  2      599
siesta:     37.73037  23.88615  11.54623  2      600
siesta:     50.90177  26.60735  10.48798  1      601
siesta:     50.93956  26.66405  12.28322  2      602
siesta:     51.78994  28.08134   9.95886  2      603
siesta:     34.40445  10.43129  17.66895  1      604
siesta:     33.87533  12.15094  17.70674  2      605
siesta:     33.02495   9.54312  16.89416  2      606
siesta:     36.40757   7.82347   8.69274  1      607
siesta:     36.12411   6.33059   9.65650  2      608
siesta:     36.97448   7.21876   7.08648  2      609
siesta:     46.61209  10.56357  15.36348  1      610
siesta:     48.02939   9.69430  14.64538  2      611
siesta:     45.19480   9.99666  14.39972  2      612
siesta:     56.00403  28.11914  21.73186  1      613
siesta:     55.96624  27.74119  23.48931  2      614
siesta:     54.49225  27.36325  21.07045  2      615
siesta:     49.97580   1.05825  28.81833  1      616
siesta:     48.76638   1.53068  30.08445  2      617
siesta:     50.10808  -0.73699  28.96951  2      618
siesta:     39.35554  14.73987   6.16051  1      619
siesta:     39.03429  16.02488   4.93219  2      620
siesta:     41.13188  14.89105   6.50066  2      621
siesta:     54.05761  19.29411   1.28501  1      622
siesta:     53.49070  18.42484   2.77790  2      623
siesta:     54.15210  21.03266   1.79524  2      624
siesta:     53.94423  16.51621   7.16206  1      625
siesta:     55.64498  16.74298   6.55735  2      626
siesta:     53.28283  18.19807   7.31324  2      627
siesta:     44.72236  25.53021  21.63737  1      628
siesta:     44.32552  27.28766  21.35391  2      629
siesta:     44.77906  24.81211  19.97441  2      630
siesta:     32.83598  14.89105  26.55066  1      631
siesta:     32.25017  13.19029  26.58846  2      632
siesta:     31.68325  15.79812  27.57112  2      633
siesta:     30.43603   7.99354  15.09892  1      634
siesta:     30.77618   8.73054  13.47375  2      635
siesta:     28.73527   7.44552  15.00443  2      636
siesta:     38.59965   6.42507  28.25142  1      637
siesta:     37.86265   5.99043  29.83879  2      638
siesta:     40.37599   6.21720  28.49708  2      639
siesta:     58.74414  11.18718  24.15071  1      640
siesta:     58.04494   9.82658  23.18695  2      641
siesta:     57.55361  11.47064  25.47352  2      642
siesta:     40.45158  26.15382   7.69119  1      643
siesta:     40.16812  24.39637   7.40773  2      644
siesta:     39.45003  26.53177   9.16518  2      645
siesta:     49.31440   9.88327  25.88926  1      646
siesta:     48.63410  11.31946  25.01998  2      647
siesta:     50.59941  10.56357  26.94751  2      648
siesta:     33.57297  20.01221  28.44039  1      649
siesta:     34.53674  18.99176  27.28766  2      650
siesta:     31.85332  19.70985  27.98686  2      651
siesta:     47.97269  24.47196   5.36682  1      652
siesta:     49.65455  23.82946   5.21565  2      653
siesta:     47.67034  25.32234   3.77945  2      654
siesta:     56.19301  18.10358  14.28634  1      655
siesta:     57.38353  19.29411  13.60603  2      656
siesta:     55.19145  17.61225  12.86904  2      657
siesta:     34.74461  28.87503  24.90660  1      658
siesta:     33.49739  28.28921  23.73497  2      659
siesta:     33.78084  29.61202  26.24831  2      660
siesta:     32.51473  20.65471  17.06423  1      661
siesta:     33.47849  21.33502  18.42484  2      662
siesta:     33.11944  18.95396  16.87526  2      663
siesta:     30.45493  21.37281  12.16984  1      664
siesta:     31.47538  22.29878  10.99821  2      665
siesta:     31.26751  21.61848  13.75721  2      666
siesta:     33.28952  17.61225  10.11004  1      667
siesta:     34.74461  17.36659  11.16829  2      668
siesta:     31.98560  18.14138  11.22498  2      669
siesta:     38.99649   2.58893  24.71763  1      670
siesta:     37.65478   1.37950  24.75542  2      671
siesta:     38.44847   3.89284  25.85146  2      672
siesta:     38.42957  20.69251  11.11159  1      673
siesta:     37.25794  20.69251   9.75099  2      674
siesta:     38.22170  19.04845  11.86748  2      675
siesta:     41.88777   8.03134   5.51800  1      676
siesta:     43.07830   8.27700   4.17630  2      677
siesta:     40.41379   8.91951   4.95108  2      678
siesta:     38.58075  20.67361  22.14760  1      679
siesta:     38.22170  21.80745  20.78700  2      680
siesta:     38.73193  19.04845  21.35391  2      681
siesta:     46.49871   0.52912  12.71786  1      682
siesta:     46.27194   2.02201  11.71631  2      683
siesta:     47.57585  -0.52912  11.71631  2      684
siesta:     38.84531   9.59981  20.93817  1      685
siesta:     37.12566   9.84548  20.40905  2      686
siesta:     39.33664   8.05024  20.12559  2      687
siesta:     32.72260   9.58092   3.38261  1      688
siesta:     32.23127   9.90217   5.10226  2      689
siesta:     34.42335  10.20453   3.26923  2      690
siesta:     43.41845  21.58068   4.04402  1      691
siesta:     44.81685  22.33657   4.87550  2      692
siesta:     41.96336  22.39326   4.76211  2      693
siesta:     55.58829  17.00754  21.80745  1      694
siesta:     57.19456  16.21386  22.09091  2      695
siesta:     54.98358  16.27055  20.27677  2      696
siesta:     56.15521  21.86414  18.25476  1      697
siesta:     56.26859  20.29567  17.36659  2      698
siesta:     56.11742  23.11136  16.95085  2      699
siesta:     31.77773  28.74275  20.10669  1      700
siesta:     30.00139  28.55377  20.44684  2      701
siesta:     32.06119  30.51909  20.23897  2      702
siesta:     41.30196  23.28144  25.60580  1      703
siesta:     40.31930  22.07201  24.67983  2      704
siesta:     42.45469  23.98063  24.37748  2      705
siesta:     54.79461  11.58403  28.17583  1      706
siesta:     54.18990  13.26588  28.00575  2      707
siesta:     54.01982  10.96042  29.66871  2      708
siesta:     56.57095   3.77945  16.32724  1      709
siesta:     57.55361   2.72121  15.25010  2      710
siesta:     54.88909   3.70386  15.64694  2      711
siesta:     43.87199   6.25500  28.83723  1      712
siesta:     44.76016   7.52111  29.76320  2      713
siesta:     43.72081   6.93530  27.17427  2      714
siesta:     34.49894  24.26409  21.05156  1      715
siesta:     33.42180  25.70029  20.76810  2      716
siesta:     35.51939  24.73652  22.44996  2      717
siesta:     47.29239  18.08469   4.06291  1      718
siesta:     47.10342  16.98864   2.62672  2      719
siesta:     46.02627  19.35080   3.83615  2      720
siesta:     47.63254  14.68318  12.85014  1      721
siesta:     47.04673  13.43596  14.02177  2      722
siesta:     46.59319  14.45641  11.37616  2      723
siesta:     35.17924   1.24722   6.87861  1      724
siesta:     34.46115   2.81569   6.31169  2      725
siesta:     34.29107   0.85038   8.39039  2      726
siesta:     33.91313  15.85481  16.96975  1      727
siesta:     33.27062  15.83591  18.67050  2      728
siesta:     32.60921  15.13671  15.96819  2      729
siesta:     42.02005   8.97620  12.33992  1      730
siesta:     40.41379   9.73209  12.66117  2      731
siesta:     42.26572   9.18407  10.56357  2      732
siesta:     51.94112   9.14628  19.86103  1      733
siesta:     51.99781  10.37460  21.20274  2      734
siesta:     52.99937   7.80457  20.42795  2      735
siesta:     44.19324  15.96819   8.40928  1      736
siesta:     42.66256  16.79967   8.90061  2      737
siesta:     44.94913  17.08313   7.21876  2      738
siesta:     29.58565  27.23096   8.12583  1      739
siesta:     30.51162  28.17583   9.35415  2      740
siesta:     28.60299  28.47818   7.23765  2      741
siesta:     38.39178  22.63893  17.02644  1      742
siesta:     38.05163  22.97908  15.28789  2      743
siesta:     40.16812  22.86570  17.19651  2      744
siesta:     45.38377  10.62027   8.01244  1      745
siesta:     44.15545   9.95886   6.85971  2      746
siesta:     45.38377  12.39661   7.72898  2      747
siesta:     41.07519  29.47974   4.15740  1      748
siesta:     40.54607  28.78054   2.57003  2      749
siesta:     40.58386  28.25142   5.38572  2      750
siesta:     48.95535  25.56800  15.51466  1      751
siesta:     49.74904  25.39793  17.12093  2      752
siesta:     48.69079  27.34435  15.32568  2      753
siesta:     52.82929  15.04223  11.75410  1      754
siesta:     51.12854  15.17451  12.32102  2      755
siesta:     52.73481  15.30679   9.95886  2      756
siesta:     48.67189   7.84237  10.99821  1      757
siesta:     48.23726   6.40617   9.97776  2      758
siesta:     47.72703   9.20297  10.28011  2      759
siesta:     56.19301   4.04402   1.28501  1      760
siesta:     54.49225   4.08181   0.66140  2      761
siesta:     57.17566   3.32592  -0.05669  2      762
siesta:     32.89267  29.34746  11.67851  1      763
siesta:     34.21548  28.19473  12.15094  2      764
siesta:     31.45648  28.81833  12.64227  2      765
siesta:     37.67368  16.10047  13.19029  1      766
siesta:     36.53985  16.51621  14.53200  2      767
siesta:     37.63589  14.28634  13.13360  2      768
siesta:     26.49397  30.02029   4.66763  1      769
siesta:     26.96640  31.04074   3.25033  2      770
siesta:     25.77587  31.19192   5.85815  2      771
siesta:     20.33346  43.56963  21.97752  1      772
siesta:     21.22163  44.04206  20.46574  2      773
siesta:     18.59491  43.64522  21.50509  2      774
siesta:     11.07380  33.17613  13.00132  1      775
siesta:     11.41395  34.93358  12.83125  2      776
siesta:     11.58403  32.45804  11.43285  2      777
siesta:     14.09736  42.56807  25.01998  1      778
siesta:     14.15405  42.56807  26.83412  2      779
siesta:     13.53044  40.90512  24.56645  2      780
siesta:     17.17762  38.20281  20.03110  1      781
siesta:     16.83747  38.80752  18.34925  2      782
siesta:     18.95396  38.42957  20.23897  2      783
siesta:     22.75231  31.36199   9.37305  1      784
siesta:     21.27832  31.87222   8.48487  2      785
siesta:     23.45151  32.89267  10.03445  2      786
siesta:     27.17427  55.17255  26.85302  1      787
siesta:     28.61046  55.11586  27.94906  2      788
siesta:     27.57112  54.00092  25.53021  2      789
siesta:     24.09402  54.60563   4.02512  1      790
siesta:     23.67828  54.53005   2.26767  2      791
siesta:     24.75542  56.26859   4.28968  2      792
siesta:     28.81833  46.49871   4.57314  1      793
siesta:     29.17738  48.21836   4.13850  2      794
siesta:     29.02620  45.57274   3.04246  2      795
siesta:      3.17474  36.70992  26.24831  1      796
siesta:      1.79524  37.54140  25.45462  2      797
siesta:      4.62983  37.69258  25.81367  2      798
siesta:      1.56847  31.96671  27.68450  1      799
siesta:      0.15118  31.47538  26.68294  2      800
siesta:      2.22988  33.42180  26.85302  2      801
siesta:     21.97752  35.44380  29.00731  1      802
siesta:     21.33502  33.81864  28.51598  2      803
siesta:     21.18384  36.59654  27.87347  2      804
siesta:      2.81569  54.62453  28.47818  1      805
siesta:      3.53379  55.55050  29.85768  2      806
siesta:      3.38261  52.92378  28.74275  2      807
siesta:      2.05980  34.02651  19.10514  1      808
siesta:      0.77479  34.23438  17.83902  2      809
siesta:      3.36371  35.17924  18.61381  2      810
siesta:      9.12738  54.75681  29.38525  1      811
siesta:     10.37460  54.35997  28.13803  2      812
siesta:      7.54001  54.37887  28.59157  2      813
siesta:     20.99487  33.21393  16.91306  1      814
siesta:     19.33191  32.59032  17.30990  2      815
siesta:     21.78855  33.40290  18.51932  2      816
siesta:      2.04091  44.60898  21.58068  1      817
siesta:      1.11494  43.07830  21.42950  2      818
siesta:      2.47554  44.70347  23.33813  2      819
siesta:     16.47842  39.14767   2.28657  1      820
siesta:     17.95241  39.10987   3.34482  2      821
siesta:     16.74298  40.54607   1.19053  2      822
siesta:     25.90816  37.61699   4.72432  1      823
siesta:     26.00264  36.59654   6.21720  2      824
siesta:     26.55066  36.55874   3.40151  2      825
siesta:     10.56357  44.60898  21.08935  1      826
siesta:     12.32102  44.28773  21.37281  2      827
siesta:      9.80768  42.98381  21.08935  2      828
siesta:      7.97465  40.45158  12.77455  1      829
siesta:      7.02978  39.50672  11.56513  2      830
siesta:      7.36993  39.90356  14.38082  2      831
siesta:      2.30547  43.00271   7.38883  1      832
siesta:      1.58737  43.98537   6.04713  2      833
siesta:      2.83459  44.21214   8.61715  2      834
siesta:     12.66117  32.94936   7.67229  1      835
siesta:     12.30212  31.62656   6.50066  2      836
siesta:     12.49109  34.48004   6.70853  2      837
siesta:     26.55066  35.84065   9.44863  1      838
siesta:     25.43572  37.16346   9.95886  2      839
siesta:     28.19473  36.55874   9.59981  2      840
siesta:      7.89906  34.08320   3.28812  1      841
siesta:      8.86282  32.76039   4.06291  2      842
siesta:      6.29279  33.30841   2.91018  2      843
siesta:     28.85613  52.35686   3.74166  1      844
siesta:     27.43883  53.35842   4.25189  2      845
siesta:     30.29232  53.39621   4.08181  2      846
siesta:     15.38238  52.75370   9.52422  1      847
siesta:     16.47842  52.20568  10.84703  2      848
siesta:     16.47842  53.39621   8.23921  2      849
siesta:     23.64048  44.79795  17.51777  1      850
siesta:     24.35858  43.21058  17.08313  2      851
siesta:     24.45307  45.98848  16.42173  2      852
siesta:     23.45151  39.54451  10.90372  1      853
siesta:     21.73186  39.03429  11.13049  2      854
siesta:     23.39482  41.33975  11.01711  2      855
siesta:     11.01711  35.23593  18.25476  1      856
siesta:     11.41395  34.97137  16.49732  2      857
siesta:     11.09270  33.59187  18.97286  2      858
siesta:     22.35547  54.62453  19.72875  1      859
siesta:     21.20274  54.28438  21.08935  2      860
siesta:     23.43261  53.18834  19.67206  2      861
siesta:     21.76965  46.36643  27.74119  1      862
siesta:     21.46730  47.51916  26.38059  2      863
siesta:     22.80900  47.29239  28.89392  2      864
siesta:     21.59958  48.86087  23.22474  1      865
siesta:     20.42795  47.70813  22.44996  2      866
siesta:     23.22474  48.06718  22.99798  2      867
siesta:     20.22008  36.93669   4.81880  1      868
siesta:     21.71296  37.78707   5.40462  2      869
siesta:     20.71141  36.18080   3.25033  2      870
siesta:     16.42173  31.45648   2.19208  1      871
siesta:     15.79812  32.74149   1.07714  2      872
siesta:     14.94774  30.66280   2.85349  2      873
siesta:      8.46598  40.20592   3.53379  1      874
siesta:      9.24076  40.54607   1.94642  2      875
siesta:      8.84392  41.66101   4.55424  2      876
siesta:     17.10203  44.59008  29.66871  1      877
siesta:     15.89260  45.61054  28.76164  2      878
siesta:     18.70830  45.10031  29.02620  2      879
siesta:      5.78256  33.76195  12.35881  1      880
siesta:      4.89439  32.17458  12.32102  2      881
siesta:      7.48332  33.30841  12.73676  2      882
siesta:     14.04067  51.92222  16.95085  1      883
siesta:     13.34147  50.31595  16.49732  2      884
siesta:     14.17295  52.81039  15.38238  2      885
siesta:      8.42818  45.57274  26.19161  1      886
siesta:      6.76522  44.89244  26.45618  2      887
siesta:      9.01400  44.72236  24.69873  2      888
siesta:     -0.20787  51.92222  23.26254  1      889
siesta:      1.51178  52.09230  22.77121  2      890
siesta:     -1.02045  51.20413  21.82635  2      891
siesta:      1.49288  38.44847   9.33525  1      892
siesta:      1.92752  40.11143   8.76833  2      893
siesta:      3.00467  37.48471   9.16518  2      894
siesta:      4.81880  52.13009   8.10693  1      895
siesta:      4.83770  50.35375   7.78567  2      896
siesta:      5.78256  52.82929   6.74632  2      897
siesta:     16.72408  32.85488  20.10669  1      898
siesta:     16.62960  34.65012  20.06890  2      899
siesta:     15.02333  32.28796  19.86103  2      900
siesta:     29.91438  43.66412  14.75877  1      901
siesta:     29.08290  42.11454  15.13671  2      902
siesta:     28.61046  44.91134  14.85325  2      903
siesta:      8.18252  57.00559  18.78389  1      904
siesta:      6.40617  57.17566  19.02955  2      905
siesta:      8.42818  55.28594  18.31145  2      906
siesta:     27.77899  35.80285  21.73186  1      907
siesta:     29.21518  35.14145  20.86258  2      908
siesta:     27.11758  34.40445  22.65783  2      909
siesta:     29.68761  42.66256   1.07714  1      910
siesta:     28.15693  41.96336   0.39684  2      911
siesta:     30.65137  41.22637   1.58737  2      912
siesta:     19.40750  53.67967  24.01843  1      913
siesta:     17.87682  54.15210  23.16805  2      914
siesta:     19.27521  51.90333  24.22630  2      915
siesta:     23.75387  42.02005   3.68497  1      916
siesta:     23.79166  43.38066   4.87550  2      917
siesta:     24.67983  40.69725   4.47865  2      918
siesta:     22.29878  50.75059   9.01400  1      919
siesta:     20.93817  50.39154  10.16673  2      920
siesta:     21.97752  52.45135   8.46598  2      921
siesta:      6.85971  40.24371  25.98374  1      922
siesta:      7.23765  39.88466  24.26409  2      923
siesta:      8.06913  39.27995  26.92861  2      924
siesta:     13.13360  48.01049  28.89392  1      925
siesta:     11.50844  47.91600  28.11914  2      926
siesta:     12.98242  49.33330  30.12225  2      927
siesta:     26.19161  32.32576  25.09557  1      928
siesta:     24.45307  32.79819  24.90660  2      929
siesta:     26.49397  31.19192  23.71607  2      930
siesta:      8.46598  51.90333   4.53534  1      931
siesta:      7.86126  50.37265   3.76056  2      932
siesta:      8.22031  53.16944   3.26923  2      933
siesta:     25.37903  40.28151  16.27055  1      934
siesta:     24.45307  39.24216  17.42328  2      935
siesta:     24.81211  39.75238  14.62649  2      936
siesta:     20.50354  30.51162  23.43261  1      937
siesta:     19.97441  30.58721  25.15226  2      938
siesta:     19.10514  31.15412  22.48775  2      939
siesta:     14.02177  37.44691  24.11291  1      940
siesta:     15.04223  38.07052  22.75231  2      941
siesta:     13.36037  35.87844  23.50820  2      942
siesta:     11.71631  47.40578  16.93195  1      943
siesta:     10.96042  46.93334  18.51932  2      944
siesta:     10.60137  46.72547  15.68473  2      945
siesta:     17.65005  33.64856   8.08803  1      946
siesta:     17.97130  34.89578   6.80302  2      947
siesta:     15.85481  33.64856   8.25811  2      948
siesta:      6.51956  47.40578   2.72121  1      949
siesta:      5.65028  45.85620   3.04246  2      950
siesta:      5.97154  47.89710   1.07714  2      951
siesta:     18.57602  50.25926  13.19029  1      952
siesta:     18.25476  49.06874  14.51310  2      953
siesta:     18.57602  51.86553  14.02177  2      954
siesta:      3.42041  56.47646   4.25189  1      955
siesta:      4.38417  57.87486   4.89439  2      956
siesta:      2.04091  56.30639   5.40462  2      957
siesta:     29.19628  58.32840  14.77766  1      958
siesta:     28.13803  56.91110  14.49421  2      959
siesta:     30.21673  57.87486  16.19496  2      960
siesta:     12.73676  55.81506  13.19029  1      961
siesta:     13.60603  57.40243  13.11470  2      962
siesta:     13.03912  55.05917  11.56513  2      963
siesta:     26.26720  54.43556  12.83125  1      964
siesta:     24.62314  54.03872  12.18874  2      965
siesta:     27.36325  53.28283  11.96197  2      966
siesta:     11.24387  43.13499  29.70651  1      967
siesta:     12.50999  44.42001  29.91438  2      968
siesta:     10.05335  43.87199  28.55377  2      969
siesta:     22.58224  53.90644  28.49708  1      970
siesta:     21.37281  53.92533  27.13648  2      971
siesta:     24.15071  54.34107  27.70340  2      972
siesta:     11.82969  30.47382  20.59802  1      973
siesta:     11.30057  30.53051  22.33657  2      974
siesta:     10.73365  29.24550  19.82323  2      975
siesta:      2.66451  33.91313   3.57158  1      976
siesta:      2.34326  35.67057   3.72276  2      977
siesta:      2.38106  33.53518   1.83304  2      978
siesta:     28.96951  47.91600  27.59001  1      979
siesta:     28.04355  48.08608  26.04044  2      980
siesta:     27.76009  48.23726  28.87503  2      981
siesta:      7.76678  55.21035  11.73520  1      982
siesta:      9.16518  55.89065  12.64227  2      983
siesta:      8.16362  53.45290  11.54623  2      984
siesta:     21.33502  56.17411  10.48798  1      985
siesta:     21.37281  56.23080  12.28322  2      986
siesta:     22.22319  57.64810   9.95886  2      987
siesta:      4.83770  39.99805  17.66895  1      988
siesta:      4.30858  41.71770  17.70674  2      989
siesta:      3.45820  39.10987  16.89416  2      990
siesta:      6.84081  37.39022   8.69274  1      991
siesta:      6.55735  35.89734   9.65650  2      992
siesta:      7.40773  36.78551   7.08648  2      993
siesta:     17.04534  40.13033  15.36348  1      994
siesta:     18.46263  39.26105  14.64538  2      995
siesta:     15.62804  39.56341  14.39972  2      996
siesta:     26.43728  57.68589  21.73186  1      997
siesta:     26.39948  57.30794  23.48931  2      998
siesta:     24.92550  56.93000  21.07045  2      999
siesta:     20.40905  30.62500  28.81833  1     1000
siesta:     19.19963  31.09743  30.08445  2     1001
siesta:     20.54133  28.82976  28.96951  2     1002
siesta:      9.78879  44.30662   6.16051  1     1003
siesta:      9.46753  45.59164   4.93219  2     1004
siesta:     11.56513  44.45780   6.50066  2     1005
siesta:     24.49086  48.86087   1.28501  1     1006
siesta:     23.92394  47.99159   2.77790  2     1007
siesta:     24.58535  50.59941   1.79524  2     1008
siesta:     24.37748  46.08297   7.16206  1     1009
siesta:     26.07823  46.30973   6.55735  2     1010
siesta:     23.71607  47.76482   7.31324  2     1011
siesta:     15.15561  55.09696  21.63737  1     1012
siesta:     14.75877  56.85441  21.35391  2     1013
siesta:     15.21230  54.37887  19.97441  2     1014
siesta:      3.26923  44.45780  26.55066  1     1015
siesta:      2.68341  42.75705  26.58846  2     1016
siesta:      2.11649  45.36487  27.57112  2     1017
siesta:      0.86927  37.56030  15.09892  1     1018
siesta:      1.20943  38.29729  13.47375  2     1019
siesta:     -0.83148  37.01228  15.00443  2     1020
siesta:      9.03289  35.99183  28.25142  1     1021
siesta:      8.29590  35.55719  29.83879  2     1022
siesta:     10.80924  35.78396  28.49708  2     1023
siesta:     29.17738  40.75394  24.15071  1     1024
siesta:     28.47818  39.39333  23.18695  2     1025
siesta:     27.98686  41.03740  25.47352  2     1026
siesta:     10.88483  55.72057   7.69119  1     1027
siesta:     10.60137  53.96313   7.40773  2     1028
siesta:      9.88327  56.09852   9.16518  2     1029
siesta:     19.74765  39.45003  25.88926  1     1030
siesta:     19.06734  40.88622  25.01998  2     1031
siesta:     21.03266  40.13033  26.94751  2     1032
siesta:      4.00622  49.57896  28.44039  1     1033
siesta:      4.96998  48.55851  27.28766  2     1034
siesta:      2.28657  49.27661  27.98686  2     1035
siesta:     18.40594  54.03872   5.36682  1     1036
siesta:     20.08780  53.39621   5.21565  2     1037
siesta:     18.10358  54.88909   3.77945  2     1038
siesta:     26.62625  47.67034  14.28634  1     1039
siesta:     27.81678  48.86087  13.60603  2     1040
siesta:     25.62470  47.17901  12.86904  2     1041
siesta:      5.17785  58.44178  24.90660  1     1042
siesta:      3.93063  57.85597  23.73497  2     1043
siesta:      4.21409  59.17877  26.24831  2     1044
siesta:      2.94797  50.22147  17.06423  1     1045
siesta:      3.91173  50.90177  18.42484  2     1046
siesta:      3.55269  48.52071  16.87526  2     1047
siesta:      0.88817  50.93956  12.16984  1     1048
siesta:      1.90862  51.86553  10.99821  2     1049
siesta:      1.70075  51.18523  13.75721  2     1050
siesta:      3.72276  47.17901  10.11004  1     1051
siesta:      5.17785  46.93334  11.16829  2     1052
siesta:      2.41885  47.70813  11.22498  2     1053
siesta:      9.42974  32.15568  24.71763  1     1054
siesta:      8.08803  30.94625  24.75542  2     1055
siesta:      8.88172  33.45959  25.85146  2     1056
siesta:      8.86282  50.25926  11.11159  1     1057
siesta:      7.69119  50.25926   9.75099  2     1058
siesta:      8.65495  48.61520  11.86748  2     1059
siesta:     12.32102  37.59809   5.51800  1     1060
siesta:     13.51155  37.84376   4.17630  2     1061
siesta:     10.84703  38.48626   4.95108  2     1062
siesta:      9.01400  50.24037  22.14760  1     1063
siesta:      8.65495  51.37420  20.78700  2     1064
siesta:      9.16518  48.61520  21.35391  2     1065
siesta:     16.93195  30.09588  12.71786  1     1066
siesta:     16.70519  31.58876  11.71631  2     1067
siesta:     18.00910  29.03763  11.71631  2     1068
siesta:      9.27856  39.16657  20.93817  1     1069
siesta:      7.55891  39.41223  20.40905  2     1070
siesta:      9.76989  37.61699  20.12559  2     1071
siesta:      3.15584  39.14767   3.38261  1     1072
siesta:      2.66451  39.46892   5.10226  2     1073
siesta:      4.85660  39.77128   3.26923  2     1074
siesta:     13.85170  51.14743   4.04402  1     1075
siesta:     15.25010  51.90333   4.87550  2     1076
siesta:     12.39661  51.96002   4.76211  2     1077
siesta:     26.02154  46.57430  21.80745  1     1078
siesta:     27.62781  45.78061  22.09091  2     1079
siesta:     25.41683  45.83730  20.27677  2     1080
siesta:     26.58846  51.43089  18.25476  1     1081
siesta:     26.70184  49.86242  17.36659  2     1082
siesta:     26.55066  52.67811  16.95085  2     1083
siesta:      2.21098  58.30950  20.10669  1     1084
siesta:      0.43464  58.12053  20.44684  2     1085
siesta:      2.49444  60.08584  20.23897  2     1086
siesta:     11.73520  52.84819  25.60580  1     1087
siesta:     10.75255  51.63876  24.67983  2     1088
siesta:     12.88794  53.54739  24.37748  2     1089
siesta:     25.22785  41.15078  28.17583  1     1090
siesta:     24.62314  42.83264  28.00575  2     1091
siesta:     24.45307  40.52717  29.66871  2     1092
siesta:     27.00420  33.34621  16.32724  1     1093
siesta:     27.98686  32.28796  15.25010  2     1094
siesta:     25.32234  33.27062  15.64694  2     1095
siesta:     14.30523  35.82175  28.83723  1     1096
siesta:     15.19340  37.08787  29.76320  2     1097
siesta:     14.15405  36.50205  27.17427  2     1098
siesta:      4.93219  53.83085  21.05156  1     1099
siesta:      3.85504  55.26704  20.76810  2     1100
siesta:      5.95264  54.30328  22.44996  2     1101
siesta:     17.72564  47.65144   4.06291  1     1102
siesta:     17.53667  46.55540   2.62672  2     1103
siesta:     16.45952  48.91756   3.83615  2     1104
siesta:     18.06579  44.24993  12.85014  1     1105
siesta:     17.47997  43.00271  14.02177  2     1106
siesta:     17.02644  44.02316  11.37616  2     1107
siesta:      5.61249  30.81397   6.87861  1     1108
siesta:      4.89439  32.38245   6.31169  2     1109
siesta:      4.72432  30.41713   8.39039  2     1110
siesta:      4.34637  45.42156  16.96975  1     1111
siesta:      3.70386  45.40267  18.67050  2     1112
siesta:      3.04246  44.70347  15.96819  2     1113
siesta:     12.45330  38.54296  12.33992  1     1114
siesta:     10.84703  39.29885  12.66117  2     1115
siesta:     12.69896  38.75083  10.56357  2     1116
siesta:     22.37437  38.71303  19.86103  1     1117
siesta:     22.43106  39.94135  21.20274  2     1118
siesta:     23.43261  37.37133  20.42795  2     1119
siesta:     14.62649  45.53495   8.40928  1     1120
siesta:     13.09581  46.36643   8.90061  2     1121
siesta:     15.38238  46.64988   7.21876  2     1122
siesta:      0.01890  56.79772   8.12583  1     1123
siesta:      0.94486  57.74258   9.35415  2     1124
siesta:     -0.96376  58.04494   7.23765  2     1125
siesta:      8.82502  52.20568  17.02644  1     1126
siesta:      8.48487  52.54583  15.28789  2     1127
siesta:     10.60137  52.43245  17.19651  2     1128
siesta:     15.81701  40.18702   8.01244  1     1129
siesta:     14.58869  39.52561   6.85971  2     1130
siesta:     15.81701  41.96336   7.72898  2     1131
siesta:     11.50844  59.04649   4.15740  1     1132
siesta:     10.97931  58.34729   2.57003  2     1133
siesta:     11.01711  57.81817   5.38572  2     1134
siesta:     19.38860  55.13476  15.51466  1     1135
siesta:     20.18228  54.96468  17.12093  2     1136
siesta:     19.12404  56.91110  15.32568  2     1137
siesta:     23.26254  44.60898  11.75410  1     1138
siesta:     21.56178  44.74126  12.32102  2     1139
siesta:     23.16805  44.87354   9.95886  2     1140
siesta:     19.10514  37.40912  10.99821  1     1141
siesta:     18.67050  35.97293   9.97776  2     1142
siesta:     18.16028  38.76972  10.28011  2     1143
siesta:     26.62625  33.61077   1.28501  1     1144
siesta:     24.92550  33.64856   0.66140  2     1145
siesta:     27.60891  32.89267  -0.05669  2     1146
siesta:      3.32592  58.91421  11.67851  1     1147
siesta:      4.64873  57.76148  12.15094  2     1148
siesta:      1.88973  58.38509  12.64227  2     1149
siesta:      8.10693  45.66723  13.19029  1     1150
siesta:      6.97309  46.08297  14.53200  2     1151
siesta:      8.06913  43.85309  13.13360  2     1152
siesta:     56.06072  30.02029   4.66763  1     1153
siesta:     56.53316  31.04074   3.25033  2     1154
siesta:     55.34263  31.19192   5.85815  2     1155
siesta:     49.90022  43.56963  21.97752  1     1156
siesta:     50.78839  44.04206  20.46574  2     1157
siesta:     48.16167  43.64522  21.50509  2     1158
siesta:     40.64055  33.17613  13.00132  1     1159
siesta:     40.98070  34.93358  12.83125  2     1160
siesta:     41.15078  32.45804  11.43285  2     1161
siesta:     43.66412  42.56807  25.01998  1     1162
siesta:     43.72081  42.56807  26.83412  2     1163
siesta:     43.09720  40.90512  24.56645  2     1164
siesta:     46.74437  38.20281  20.03110  1     1165
siesta:     46.40422  38.80752  18.34925  2     1166
siesta:     48.52071  38.42957  20.23897  2     1167
siesta:     52.31907  31.36199   9.37305  1     1168
siesta:     50.84508  31.87222   8.48487  2     1169
siesta:     53.01826  32.89267  10.03445  2     1170
siesta:     56.74103  55.17255  26.85302  1     1171
siesta:     58.17722  55.11586  27.94906  2     1172
siesta:     57.13787  54.00092  25.53021  2     1173
siesta:     53.66077  54.60563   4.02512  1     1174
siesta:     53.24503  54.53005   2.26767  2     1175
siesta:     54.32218  56.26859   4.28968  2     1176
siesta:     58.38509  46.49871   4.57314  1     1177
siesta:     58.74414  48.21836   4.13850  2     1178
siesta:     58.59296  45.57274   3.04246  2     1179
siesta:     32.74149  36.70992  26.24831  1     1180
siesta:     31.36199  37.54140  25.45462  2     1181
siesta:     34.19658  37.69258  25.81367  2     1182
siesta:     31.13523  31.96671  27.68450  1     1183
siesta:     29.71793  31.47538  26.68294  2     1184
siesta:     31.79663  33.42180  26.85302  2     1185
siesta:     51.54428  35.44380  29.00731  1     1186
siesta:     50.90177  33.81864  28.51598  2     1187
siesta:     50.75059  36.59654  27.87347  2     1188
siesta:     32.38245  54.62453  28.47818  1     1189
siesta:     33.10054  55.55050  29.85768  2     1190
siesta:     32.94936  52.92378  28.74275  2     1191
siesta:     31.62656  34.02651  19.10514  1     1192
siesta:     30.34154  34.23438  17.83902  2     1193
siesta:     32.93047  35.17924  18.61381  2     1194
siesta:     38.69413  54.75681  29.38525  1     1195
siesta:     39.94135  54.35997  28.13803  2     1196
siesta:     37.10676  54.37887  28.59157  2     1197
siesta:     50.56162  33.21393  16.91306  1     1198
siesta:     48.89866  32.59032  17.30990  2     1199
siesta:     51.35530  33.40290  18.51932  2     1200
siesta:     31.60766  44.60898  21.58068  1     1201
siesta:     30.68169  43.07830  21.42950  2     1202
siesta:     32.04230  44.70347  23.33813  2     1203
siesta:     46.04517  39.14767   2.28657  1     1204
siesta:     47.51916  39.10987   3.34482  2     1205
siesta:     46.30973  40.54607   1.19053  2     1206
siesta:     55.47491  37.61699   4.72432  1     1207
siesta:     55.56940  36.59654   6.21720  2     1208
siesta:     56.11742  36.55874   3.40151  2     1209
siesta:     40.13033  44.60898  21.08935  1     1210
siesta:     41.88777  44.28773  21.37281  2     1211
siesta:     39.37444  42.98381  21.08935  2     1212
siesta:     37.54140  40.45158  12.77455  1     1213
siesta:     36.59654  39.50672  11.56513  2     1214
siesta:     36.93669  39.90356  14.38082  2     1215
siesta:     31.87222  43.00271   7.38883  1     1216
siesta:     31.15412  43.98537   6.04713  2     1217
[...]
Time (sec):           3.817e+03      1.00000   3.817e+03
Objects:              4.305e+03      1.38916   3.746e+03
Flops:                2.646e+10   27075.22995   1.016e+10  1.041e+13
Flops/sec:            6.931e+06   27075.22991   2.663e+06  2.727e+09
MPI Messages:         4.231e+05     11.80089   2.457e+05  2.516e+08
MPI Message Lengths:  1.187e+09     31.03424   2.615e+03  6.579e+11
MPI Reductions:       7.722e+04      1.30474

Flop counting convention: 1 flop = 1 real number operation of type (multiply/divide/add/subtract)
                            e.g., VecAXPY() for real vectors of length N --> 2N flops
                            and VecAXPY() for complex vectors of length N --> 8N flops

Summary of Stages:   ----- Time ------  ----- Flops -----  --- Messages ---  -- Message Lengths --  -- Reductions --
                        Avg     %Total     Avg     %Total   counts   %Total     Avg         %Total   counts   %Total 
 0:      Main Stage: 2.0412e-04   0.0%  0.0000e+00   0.0%  0.000e+00   0.0%  0.000e+00        0.0%  0.000e+00   0.0% 
 1:     siesta_init: 4.2675e+00   0.1%  0.0000e+00   0.0%  0.000e+00   0.0%  0.000e+00        0.0%  0.000e+00   0.0% 
 2:   siesta_forces: 5.1229e+01   1.3%  0.0000e+00   0.0%  0.000e+00   0.0%  0.000e+00        0.0%  0.000e+00   0.0% 
 3:    siesta_solve: 7.7398e-03   0.0%  0.0000e+00   0.0%  0.000e+00   0.0%  0.000e+00        0.0%  0.000e+00   0.0% 
 4:    siesta2qetsc: 1.5197e-01   0.0%  0.0000e+00   0.0%  2.037e+05   0.1%  3.457e-02        0.0%  6.900e+01   0.1% 
 5: qetsc_setup_eps: 1.8413e+02   4.8%  2.4913e+09   0.0%  5.154e+06   2.0%  1.429e+02        5.5%  3.580e+02   0.6% 
 6: qetsc_solve_eps: 3.3798e+03  88.5%  1.0404e+13 100.0%  1.883e+08  74.9%  2.431e+03       93.0%  1.070e+04  18.1% 
 7:   qetsc_eigvals: 3.4255e-02   0.0%  0.0000e+00   0.0%  0.000e+00   0.0%  0.000e+00        0.0%  0.000e+00   0.0% 
 8:   qetsc_density: 1.5507e+02   4.1%  0.0000e+00   0.0%  5.788e+07  23.0%  4.080e+01        1.6%  5.827e+04  98.4% 
10:     siesta_misc: 2.1421e+01   0.6%  0.0000e+00   0.0%  0.000e+00   0.0%  0.000e+00        0.0%  0.000e+00   0.0% 
11:     qetsc_clean: 2.3882e-02   0.0%  0.0000e+00   0.0%  0.000e+00   0.0%  0.000e+00        0.0%  0.000e+00   0.0% 
12:     siesta_move: 1.4526e-04   0.0%  0.0000e+00   0.0%  0.000e+00   0.0%  0.000e+00        0.0%  0.000e+00   0.0% 
13: siesta_analysis: 1.8014e-02   0.0%  0.0000e+00   0.0%  0.000e+00   0.0%  0.000e+00        0.0%  0.000e+00   0.0% 
14:      siesta_end: 2.0717e+01   0.5%  0.0000e+00   0.0%  0.000e+00   0.0%  0.000e+00        0.0%  0.000e+00   0.0% 

------------------------------------------------------------------------------------------------------------------------
See the 'Profiling' chapter of the users' manual for details on interpreting output.
Phase summary info:
   Count: number of times phase was executed
   Time and Flops: Max - maximum over all processors
                   Ratio - ratio of maximum to minimum over all processors
   Mess: number of messages sent
   Avg. len: average message length (bytes)
   Reduct: number of global reductions
   Global: entire computation
   Stage: stages of a computation. Set stages with PetscLogStagePush() and PetscLogStagePop().
      %T - percent time in this phase         %F - percent flops in this phase
      %M - percent messages in this phase     %L - percent message lengths in this phase
      %R - percent reductions in this phase
   Total Mflop/s: 10e-6 * (sum of flops over all processors)/(max time over all processors)
------------------------------------------------------------------------------------------------------------------------
Event                Count      Time (sec)     Flops                             --- Global ---  --- Stage ---   Total
                   Max Ratio  Max     Ratio   Max  Ratio  Mess   Avg len Reduct  %T %F %M %L %R  %T %F %M %L %R Mflop/s
------------------------------------------------------------------------------------------------------------------------

--- Event Stage 0: Main Stage


--- Event Stage 1: siesta_init


--- Event Stage 2: siesta_forces


--- Event Stage 3: siesta_solve


--- Event Stage 4: siesta2qetsc

MatConvert             2 1.0 1.4442e-03 1.1 0.00e+00 0.0 0.0e+00 0.0e+00 0.0e+00  0  0  0  0  0   1  0  0  0  0     0
MatAssemblyBegin      14 1.0 1.2010e-0115.5 0.00e+00 0.0 0.0e+00 0.0e+00 5.6e+01  0  0  0  0  0  57  0  0  0 81     0
MatAssemblyEnd        14 1.0 7.2033e-03 1.0 0.00e+00 0.0 2.0e+05 4.3e+01 1.1e+01  0  0  0  0  0   5  0100100 16     0
VecSet                 3 1.0 1.4736e-05 2.0 0.00e+00 0.0 0.0e+00 0.0e+00 0.0e+00  0  0  0  0  0   0  0  0  0  0     0

--- Event Stage 5: qetsc_setup_eps

MatCholFctrSym         1 1.0 8.2101e+00 1.0 0.00e+00 0.0 0.0e+00 0.0e+00 5.0e+00  0  0  0  0  0   4  0  0  0  1     0
MatCholFctrNum         6 1.0 1.4907e+02 1.2 0.00e+00 0.0 0.0e+00 0.0e+00 0.0e+00  3  0  0  0  0  70  0  0  0  0     0
MatCopy                5 1.0 1.1820e+00 1.0 0.00e+00 0.0 0.0e+00 0.0e+00 3.0e+01  0  0  0  0  0   1  0  0  0  8     0
MatConvert             1 1.0 8.0520e-03 3.7 0.00e+00 0.0 0.0e+00 0.0e+00 0.0e+00  0  0  0  0  0   0  0  0  0  0     0
MatScale              24 1.0 1.1271e-02 4.6 3.92e+06 4.0 0.0e+00 0.0e+00 0.0e+00  0  0  0  0  0   0100  0  0  0 221038
MatAssemblyBegin      39 1.0 5.0043e+001419.0 0.00e+00 0.0 0.0e+00 0.0e+00 1.0e+02  0  0  0  0  0   1  0  0  0 28     0
MatAssemblyEnd        39 1.0 2.3568e-01 1.1 0.00e+00 0.0 5.7e+05 1.6e+03 1.0e+02  0  0  0  0  0   0  0 11  3 28     0
MatGetRow          25024 1.0 8.9940e-01 3.9 0.00e+00 0.0 0.0e+00 0.0e+00 0.0e+00  0  0  0  0  0   0  0  0  0  0     0
MatGetSubMatrice      14 1.0 1.3116e+00 2.6 0.00e+00 0.0 4.6e+06 7.6e+03 2.8e+01  0  0  2  5  0   1  0 89 97  8     0
MatZeroEntries         5 1.0 4.3722e-03 2.8 0.00e+00 0.0 0.0e+00 0.0e+00 0.0e+00  0  0  0  0  0   0  0  0  0  0     0
MatAXPY               18 1.0 2.2197e+00 1.0 0.00e+00 0.0 3.8e+05 1.6e+03 9.6e+01  0  0  0  0  0   1  0  7  2 27     0
MatRedundantMat       14 1.0 4.0449e+00 1.1 0.00e+00 0.0 4.8e+06 7.4e+03 1.3e+02  0  0  2  5  0   2  0 93 98 36     0
MatMPIConcateSeq      14 1.0 3.3423e+00 1.2 0.00e+00 0.0 1.9e+05 1.6e+03 1.0e+02  0  0  0  0  0   2  0  4  1 28     0
VecSet                11 1.0 1.1132e-04 2.5 0.00e+00 0.0 0.0e+00 0.0e+00 0.0e+00  0  0  0  0  0   0  0  0  0  0     0
EPSSetUp               6 1.0 1.8061e+02 1.0 0.00e+00 0.0 1.2e+06 5.0e+03 2.7e+02  5  0  0  1  0  98  0 23 16 75     0
STSetUp               12 1.0 1.6064e+02 1.2 0.00e+00 0.0 3.8e+05 1.6e+03 1.4e+02  4  0  0  0  0  76  0  7  2 38     0
KSPSetUp               6 1.0 1.5983e-05 2.2 0.00e+00 0.0 0.0e+00 0.0e+00 0.0e+00  0  0  0  0  0   0  0  0  0  0     0
PCSetUp                6 1.0 1.5727e+02 1.2 0.00e+00 0.0 0.0e+00 0.0e+00 5.0e+00  4  0  0  0  0  74  0  0  0  1     0

--- Event Stage 6: qetsc_solve_eps

MatMult            16678 0.0 1.6486e+02 0.0 2.17e+10 0.0 1.5e+08 3.7e+03 0.0e+00  2 75 58 83  0   2 75 77 89  0 47498
MatSolve            6502 0.0 1.6097e+03 0.0 0.00e+00 0.0 4.1e+07 1.6e+03 3.7e+03 23  0 16 10  6  27  0 22 10 35     0
MatCholFctrNum        48 4.0 1.1610e+03 4.6 0.00e+00 0.0 0.0e+00 0.0e+00 0.0e+00 16  0  0  0  0  19  0  0  0  0     0
MatCopy               48 4.0 1.1314e+01 4.0 0.00e+00 0.0 0.0e+00 0.0e+00 1.7e+02  0  0  0  0  0   0  0  0  0  2     0
MatAssemblyBegin      96 4.0 2.1210e+016259.9 0.00e+00 0.0 0.0e+00 0.0e+00 2.3e+02  0  0  0  0  0   0  0  0  0  2     0
MatAssemblyEnd        96 4.0 1.0452e+00 4.0 0.00e+00 0.0 1.8e+06 1.6e+03 3.4e+02  0  0  1  0  1   0  0  1  0  3     0
MatGetRow         211968 4.0 7.5912e+0015.3 0.00e+00 0.0 0.0e+00 0.0e+00 0.0e+00  0  0  0  0  0   0  0  0  0  0     0
MatZeroEntries        48 4.0 2.6618e-02 5.0 0.00e+00 0.0 0.0e+00 0.0e+00 0.0e+00  0  0  0  0  0   0  0  0  0  0     0
MatAXPY               48 4.0 1.7486e+01 4.0 0.00e+00 0.0 1.8e+06 1.6e+03 4.6e+02  0  0  1  0  1   0  0  1  0  4     0
VecDot              1688 0.0 6.0171e+00 0.0 4.97e+06 0.0 0.0e+00 0.0e+00 8.3e+02  0  0  0  0  1   0  0  0  0  8   417
VecCopy             1629 0.0 1.0960e-02 0.0 0.00e+00 0.0 0.0e+00 0.0e+00 0.0e+00  0  0  0  0  0   0  0  0  0  0     0
VecSet             565834715.2 3.8079e-017731.0 0.00e+00 0.0 0.0e+00 0.0e+00 0.0e+00  0  0  0  0  0   0  0  0  0  0     0
VecScatterBegin    29682 0.0 3.0339e+01 0.0 0.00e+00 0.0 1.9e+08 3.3e+03 3.7e+03  0  0 74 93  6   0  0 99100 34     0
VecScatterEnd      23180 0.0 7.7608e+01 0.0 0.00e+00 0.0 0.0e+00 0.0e+00 0.0e+00  1  0  0  0  0   1  0  0  0  0     0
VecSetRandom          14 0.0 1.2369e-02 0.0 0.00e+00 0.0 0.0e+00 0.0e+00 0.0e+00  0  0  0  0  0   0  0  0  0  0     0
EPSSetUp              13 1.0 4.3720e+02 1.0 0.00e+00 0.0 8.2e+05 1.6e+03 4.4e+02 11  0  0  0  1  13  0  0  0  4     0
EPSSolve              13 1.0 3.3799e+03 1.0 2.65e+10 0.0 1.9e+08 3.2e+03 1.1e+04 89100 75 93 18 100100100100100  3078
STSetUp               20 1.0 1.7967e+02 1.2 0.00e+00 0.0 4.4e+05 1.6e+03 1.5e+02  4  0  0  0  0   5  0  0  0  1     0
STApply             6502 0.0 1.6534e+03 0.0 8.46e+09 0.0 9.7e+07 2.8e+03 3.7e+03 24 29 39 42  6  27 29 52 45 35  1837
STMatSolve          6502 0.0 1.6108e+03 0.0 0.00e+00 0.0 4.1e+07 1.6e+03 3.7e+03 24  0 16 10  6  27  0 22 10 35     0
KSPSetUp              48 4.0 1.0519e-04 7.1 0.00e+00 0.0 0.0e+00 0.0e+00 0.0e+00  0  0  0  0  0   0  0  0  0  0     0
KSPSolve            6502 0.0 1.6101e+03 0.0 0.00e+00 0.0 4.1e+07 1.6e+03 3.7e+03 23  0 16 10  6  27  0 22 10 35     0
PCSetUp               48 4.0 1.1610e+03 4.6 0.00e+00 0.0 0.0e+00 0.0e+00 0.0e+00 16  0  0  0  0  19  0  0  0  0     0
PCApply             6502 0.0 1.6098e+03 0.0 0.00e+00 0.0 4.1e+07 1.6e+03 3.7e+03 23  0 16 10  6  27  0 22 10 35     0
BVCreate              61 0.0 7.1080e-02 0.0 0.00e+00 0.0 0.0e+00 0.0e+00 2.4e+02  0  0  0  0  0   0  0  0  0  2     0
BVCopy              1629 0.0 1.8128e-02 0.0 0.00e+00 0.0 0.0e+00 0.0e+00 0.0e+00  0  0  0  0  0   0  0  0  0  0     0
BVMultVec           8611 0.0 2.5257e+00 0.0 1.82e+09 0.0 0.0e+00 0.0e+00 0.0e+00  0  9  0  0  0   0  9  0  0  0 381870
BVMultInPlace        169 0.0 5.7179e-01 0.0 1.07e+09 0.0 0.0e+00 0.0e+00 0.0e+00  0  6  0  0  0   0  6  0  0  0 1086970
BVDotVec            8611 0.0 9.2261e+01 0.0 1.30e+10 0.0 7.6e+07 3.7e+03 5.0e+03  1 49 30 43  8   2 49 41 47 46 55118
BVOrthogonalizeV    4937 0.0 9.4531e+01 0.0 1.49e+10 0.0 7.6e+07 3.7e+03 5.0e+03  1 58 30 43  8   2 58 41 47 46 63997
BVScale             6502 0.0 6.0515e-02 0.0 9.57e+06 0.0 0.0e+00 0.0e+00 0.0e+00  0  0  0  0  0   0  0  0  0  0 91618
BVNormVec           1688 0.0 1.9909e+01 0.0 2.20e+09 0.0 1.3e+07 3.7e+03 8.3e+02  0  7  5  7  1   0  7  7  8  8 34641
BVSetRandom           14 0.0 1.2500e-02 0.0 0.00e+00 0.0 0.0e+00 0.0e+00 0.0e+00  0  0  0  0  0   0  0  0  0  0     0
DSSolve              139 0.0 1.2457e+00 0.0 0.00e+00 0.0 0.0e+00 0.0e+00 0.0e+00  0  0  0  0  0   0  0  0  0  0     0
DSVectors           7203 0.0 1.6986e-02 0.0 0.00e+00 0.0 0.0e+00 0.0e+00 0.0e+00  0  0  0  0  0   0  0  0  0  0     0
DSOther              169 0.0 4.1674e-02 0.0 0.00e+00 0.0 0.0e+00 0.0e+00 0.0e+00  0  0  0  0  0   0  0  0  0  0     0

--- Event Stage 7: qetsc_eigvals


--- Event Stage 8: qetsc_density

VecCopy            53248 1.0 1.6970e-01 1.3 0.00e+00 0.0 0.0e+00 0.0e+00 0.0e+00  0  0  0  0  0   0  0  0  0  0     0
VecSet                 1 1.0 6.7424e-05 3.1 0.00e+00 0.0 0.0e+00 0.0e+00 0.0e+00  0  0  0  0  0   0  0  0  0  0     0
VecScatterBegin   106496 1.0 8.1457e+01 1.2 0.00e+00 0.0 5.4e+07 1.8e+02 5.3e+04  2  0 22  2 90  48  0 94 98 91     0
VecScatterEnd      53248 1.0 1.5822e+01 1.0 0.00e+00 0.0 0.0e+00 0.0e+00 0.0e+00  0  0  0  0  0  10  0  0  0  0     0
BVCopy             53248 1.0 5.2377e-01 1.4 0.00e+00 0.0 0.0e+00 0.0e+00 0.0e+00  0  0  0  0  0   0  0  0  0  0     0

--- Event Stage 9: Unknown


--- Event Stage 10: siesta_misc


--- Event Stage 11: qetsc_clean


--- Event Stage 12: siesta_move


--- Event Stage 13: siesta_analysis


--- Event Stage 14: siesta_end

------------------------------------------------------------------------------------------------------------------------

Memory usage is given in bytes:

Object Type          Creations   Destructions     Memory  Descendants' Mem.
Reports information only for process 0.

--- Event Stage 0: Main Stage


--- Event Stage 1: siesta_init


--- Event Stage 2: siesta_forces


--- Event Stage 3: siesta_solve


--- Event Stage 4: siesta2qetsc

              Matrix     9              0            0     0.
              Vector    19              1         1648     0.
      Vector Scatter     4              0            0     0.
           Index Set     4              4        16744     0.

--- Event Stage 5: qetsc_setup_eps

              Matrix    34             18     25627792     0.
              Vector   120             76      1473608     0.
      Vector Scatter    20             11        11792     0.
           Index Set    73             66      1584912     0.
          EPS Solver     2              0            0     0.
  Spectral Transform     2              0            0     0.
       Krylov Solver     2              0            0     0.
      Preconditioner     2              0            0     0.
       Basis Vectors     8              5         5280     0.
         PetscRandom     1              0            0     0.
              Region     2              0            0     0.
       Direct Solver     2              0            0     0.

--- Event Stage 6: qetsc_solve_eps

              Matrix    36             36     51561360     0.
              Vector   161            161      3044240     0.
      Vector Scatter    24             24        25728     0.
           Index Set    48             48      2081856     0.
       Basis Vectors    13             13        13728     0.

--- Event Stage 7: qetsc_eigvals


--- Event Stage 8: qetsc_density

              Vector    14             13       174512     0.
      Vector Scatter   833            832       894296     0.
           Index Set  1665           1665      1458448     0.

--- Event Stage 9: Unknown


--- Event Stage 10: siesta_misc


--- Event Stage 11: qetsc_clean

              Matrix     0             25     39388888     0.
              Vector     0             63      3073576     0.
      Vector Scatter     0             14        14176     0.
           Index Set     0              7         5488     0.
          EPS Solver     0              2       160796     0.
  Spectral Transform     0              2         1632     0.
       Krylov Solver     0              2         2336     0.
      Preconditioner     0              2         1952     0.
       Basis Vectors     0              3         3168     0.
         PetscRandom     0              1          638     0.
              Region     0              2         1312     0.
       Direct Solver     0              2       109992     0.

--- Event Stage 12: siesta_move


--- Event Stage 13: siesta_analysis


--- Event Stage 14: siesta_end

              Viewer     1              0            0     0.
========================================================================================================================
Average time to get PetscTime(): 1.24e-07
Average time for MPI_Barrier(): 3.36413e-06
Average time for zero size MPI_Send(): 1.24615e-05
#PETSc Option Table entries:
-eps_interval -2.3,0.
-eps_krylovschur_detect_zeros 0
-eps_krylovschur_partitions 64
-ioptbin 7
-ioptdensity 0
-ioptinertia 1
-ioptleft 2
-log_view
-mat_mumps_cntl_3 1e-12
-mat_mumps_icntl_13 1
-mat_mumps_icntl_23 0
-mat_mumps_icntl_24 1
-mat_mumps_icntl_7 5
-mat_type mpisbaij
-roptbuffer 0.1
-roptdiff 0.02
-writeeigs 1
#End of PETSc Option Table entries
Compiled with FORTRAN kernels
Compiled with full precision matrices (default)
sizeof(short) 2 sizeof(int) 4 sizeof(long) 8 sizeof(void*) 8 sizeof(PetscScalar) 8 sizeof(PetscInt) 4
Configure options: --known-has-attribute-aligned=1 --download-chaco=0 --download-cmake=0 --download-hypre=0 --download-metis=1 --download-mumps=1 --download-parmetis=1 --download-plapack=0 --download-prometheus=0 --download-ptscotch=1 --download-spai=0 --download-spooles=0 --download-superlu=0 --download-superlu_dist=0 --download-triangle=0 --known-bits-per-byte=8 --known-level1-dcache-assoc=0 --known-level1-dcache-linesize=32 --known-level1-dcache-size=32768 --known-memcmp-ok=1 --known-mpi-c-double-complex=1 --known-mpi-int64_t=1 --known-mpi-long-double=1 --known-mpi-shared-libraries=0 --known-sdot-returns-double=0 --known-sizeof-MPI_Comm=4 --known-sizeof-MPI_Fint=4 --known-sizeof-char=1 --known-sizeof-double=8 --known-sizeof-float=4 --known-sizeof-int=4 --known-sizeof-long-long=8 --known-sizeof-long=8 --known-sizeof-short=2 --known-sizeof-size_t=8 --known-sizeof-void-p=8 --known-snrm2-returns-double=0 --with-batch=1 --with-blacs-include=/soft/libraries/alcf/current/xl/SCALAPACK/ --with-blacs-lib=/soft/libraries/alcf/current/xl/SCALAPACK/lib/libscalapack.a --with-blas-lapack-lib="-L/soft/libraries/alcf/current/xl/LAPACK/lib -llapack -L/soft/libraries/alcf/current/xl/BLAS/lib -lblas" --with-cc=mpixlc_r --with-clib-autodetect=0 --with-cxx=mpixlcxx_r --with-cxxlib-autodetect=0 --with-debugging=0 --with-fc="mpixlf77_r -qnosave" --with-fortran-kernels=1 --with-fortranlib-autodetect=0 --with-is-color-value-type=short --with-scalapack-include=/soft/libraries/alcf/current/xl/SCALAPACK/ --with-scalapack-lib=/soft/libraries/alcf/current/xl/SCALAPACK/lib/libscalapack.a --with-shared-libraries=0 --with-x=0 -COPTFLAGS=" -g -O3 -qhot=level=0 -qsimd=auto -qmaxmem=-1 -qstrict -qstrict_induction" -CXXOPTFLAGS="  -g -O3 -qhot=level=0 -qsimd=auto -qmaxmem=-1 -qstrict -qstrict_induction" -FOPTFLAGS=" -g -O3 -qhot=level=0 -qsimd=auto -qmaxmem=-1 -qstrict -qstrict_induction" LIBS="-lmpichcxx-gcc -lmpichf77-gcc -L/soft/compilers/ibmcmp-feb2015/vacpp/bg/12.1/bglib64 -libmc++ -L/soft/compilers/ibmcmp-feb2015/xlf/bg/14.1/bglib64 -lxlf90_r -lxlomp_ser -lxlfmath" PETSC_ARCH=arch-xl
-----------------------------------------
Libraries compiled on Sat Aug 20 04:19:47 2016 on vestalac2 
Machine characteristics: Linux-2.6.32-573.18.1.el6.ppc64-ppc64-with-redhat-6.7-Santiago
Using PETSc directory: /home/keceli/scratch2/petsc
Using PETSc arch: arch-xl
-----------------------------------------

Using C compiler: mpixlc_r   -g -O3 -qhot=level=0 -qsimd=auto -qmaxmem=-1 -qstrict -qstrict_induction  ${COPTFLAGS} ${CFLAGS}
Using Fortran compiler: mpixlf77_r -qnosave  -g -O3 -qhot=level=0 -qsimd=auto -qmaxmem=-1 -qstrict -qstrict_induction   ${FOPTFLAGS} ${FFLAGS} 
-----------------------------------------

Using include paths: -I/home/keceli/scratch2/petsc/arch-xl/include -I/home/keceli/scratch2/petsc/include -I/home/keceli/scratch2/petsc/include -I/home/keceli/scratch2/petsc/arch-xl/include -I/bgsys/drivers/V1R2M4/ppc64/comm/include -I/bgsys/drivers/V1R2M4/ppc64/comm/lib/xl -I/bgsys/drivers/V1R2M4/ppc64 -I/bgsys/drivers/V1R2M4/ppc64/comm/sys/include -I/bgsys/drivers/V1R2M4/ppc64/spi/include -I/bgsys/drivers/V1R2M4/ppc64/spi/include/kernel/cnk
-----------------------------------------

Using C linker: mpixlc_r
Using Fortran linker: mpixlf77_r -qnosave
Using libraries: -Wl,-rpath,/home/keceli/scratch2/petsc/arch-xl/lib -L/home/keceli/scratch2/petsc/arch-xl/lib -lpetsc -Wl,-rpath,/home/keceli/scratch2/petsc/arch-xl/lib -L/home/keceli/scratch2/petsc/arch-xl/lib -lcmumps -ldmumps -lsmumps -lzmumps -lmumps_common -lpord -Wl,-rpath,/soft/libraries/alcf/current/xl/SCALAPACK/lib -L/soft/libraries/alcf/current/xl/SCALAPACK/lib -lscalapack -L/soft/libraries/alcf/current/xl/LAPACK/lib -llapack -L/soft/libraries/alcf/current/xl/BLAS/lib -lblas -lparmetis -lmetis -lptesmumps -lptscotch -lptscotcherr -lscotch -lscotcherr -lrt -lm -lpthread -ldl -lmpichcxx-gcc -lmpichf77-gcc -L/soft/compilers/ibmcmp-feb2015/vacpp/bg/12.1/bglib64 -libmc++ -L/soft/compilers/ibmcmp-feb2015/xlf/bg/14.1/bglib64 -lxlf90_r -lxlomp_ser -lxlfmath
-----------------------------------------

