s.subSiesta: Submission time = 25s00m19h
s.subSiesta: Job name = qw128_s64_n8_c16_vesta
s.subSiesta: Number of nodes = 8
s.subSiesta: Number of cores = 128
s.subSiesta: Number of cores/node = 16
s.subSiesta: Number of slices = 64
s.subSiesta: Mapping = ABCDET
25s00m19h
#QETSc options
-ioptbin 7
-ioptdensity 0
-ioptinertia 1
-ioptleft 2
-roptbuffer 0.1
-roptdiff 0.02
-writeeigs 1

#PETSc options
-mat_type mpisbaij
-log_view
#-mat_view
#-memory_view
#-mat_mumps_icntl_13 1 #turn off scaLAPACK for matrix inertia
#-mat_mumps_icntl_24 1 #null pivot row detection for matrix inertia
-mat_mumps_icntl_23 0
#-mat_mumps_icntl_28 1 # serial analysis
#-mat_mumps_icntl_28 2 #parallel analysis
#-mat_mumps_icntl_29 1 #ptscotch
#-mat_mumps_icntl_29 2 #parmetis
-mat_mumps_icntl_7 5 #metis
#-malloc_info 
#-mat_view ::ascii_info 
#-mat_getrow_uppertriangular 1
#-st_type sinvert 
#-st_ksp_type preonly 
#-st_pc_type cholesky 
#-st_pc_factor_mat_solver_package mumps 

#SLEPc options

#-eps_krylovschur_partitions 1  
-eps_interval -2.3,0.
#-eps_tol  1.e-8
-eps_krylovschur_detect_zeros 0
#-eps_purify 1
SystemName liquid_D2O_128
SystemLabel D2O_128

#UseTreeTimer .true.
DM.MixingWeight 0.3
DM.NumberPulay 3

SolutionMethod  slepc1 #slepc0 for the older method
#SolutionMethod diagon
#BlockSize 23
WriteDM .false.
WriteDM.NetCDF .false.
WriteDMHS.NetCDF .false.
LongOutput .false.

#MaxSCFIterations 2
##################################################
# Do not change below this line                  #
##################################################

%block SuperCell
1 0 0
0 1 0
0 0 1
%endblock SuperCell

NumberOfAtoms 384
NumberOfSpecies 2

xc.functional GGA
xc.authors PBE 
MeshCutoff 150.0 Ry

%block ChemicalSpeciesLabel
  1   8  O
  2   1  H  
%endblock ChemicalSpeciesLabel

#%block AtomicMass
#  2   2.0
#%endblock AtomicMass

%Block PAO.Basis
O    3     -0.24233
n=2   0   2   E    23.36061     3.39721
     4.50769     2.64066
     1.00000     1.00000
n=2   1   2   E     2.78334     5.14253
     6.14996     2.59356
     1.00000     1.00000
n=3   2   1   E    63.98188     0.16104
     3.54403
     1.00000
H    2      0.46527
n=1   0   2   E    99.93138     2.59932
     4.20357     1.84463
     1.00000     1.00000
n=2   1   1   E    24.56504     2.20231
     3.52816
     1.00000
%EndBlock PAO.Basis

LatticeConstant 15.646046088993955 Ang
%block LatticeVectors   
  1.0  0.0  0.0
  0.0  1.0  0.0
  0.0  0.0  1.0
%endblock LatticeVectors   

AtomicCoordinatesFormat NotScaledCartesianAng
%block AtomicCoordinatesAndAtomicSpecies < coord128.data

Siesta Version: siesta-trunk-492
Architecture  : powerpc64-unknown-linux-gnu--Xlf
Compiler flags: mpixlf90_r -I/home/keceli/scratch2/petsc/include -I/home/keceli/scratch2/petssc/arch-xl/include -I/bgsys/drivers/V1R2M4/ppc64/comm/include -I/bgsys/drivers/V1R2M4/ppc64/comm/lib/xl -I/bgsys/drivers/V1R2M4/ppc64 -I/bgsys/drivers/V1R2M4/ppc64/comm/sys/include -I/bgsys/drivers/V1R2M4/ppc64/spi/include -I/bgsys/drivers/V1R2M4/ppc64/spi/include/kernel/cnk -I/home/keceli/scratch2/slepcfork/include -I/home/keceli/scratch2/slepcfork/arch-xl/include
PP flags      : -WF,-DMPI -WF,-DFC_HAVE_ABORT -WF,-DBSC_CELLXC -WF,-DMPI_TIMING 
PARALLEL version

* Running on  128 nodes in parallel
>> Start of run:   8-DEC-2016  19:01:25

                           ***********************       
                           *  WELCOME TO SIESTA  *       
                           ***********************       
WARNING: Siesta is reading its input from file INPUT_DEBUG

reinit: -----------------------------------------------------------------------
reinit: System Name: liquid_D2O_128
reinit: -----------------------------------------------------------------------
reinit: System Label: D2O_128                                                     
reinit: -----------------------------------------------------------------------

initatom: Reading input for the pseudopotentials and atomic orbitals ----------
Species number:   1 Atomic number:    8 Label: O
Species number:   2 Atomic number:    1 Label: H
 
Ground state valence configuration:   2s02  2p04
Reading pseudopotential information in formatted form from O.psf

Valence configuration for pseudopotential generation:
2s( 2.00) rc: 1.14
2p( 4.00) rc: 1.14
3d( 0.00) rc: 1.14
4f( 0.00) rc: 1.14
Ground state valence configuration:   1s01
Reading pseudopotential information in formatted form from H.psf

Valence configuration for pseudopotential generation:
1s( 0.60) rc: 1.25
2p( 0.00) rc: 1.25
3d( 0.00) rc: 1.25
4f( 0.00) rc: 1.25
For O, standard SIESTA heuristics set lmxkb to 3
 (one more than the basis l, including polarization orbitals).
Use PS.lmax or PS.KBprojectors blocks to override.
For H, standard SIESTA heuristics set lmxkb to 2
 (one more than the basis l, including polarization orbitals).
Use PS.lmax or PS.KBprojectors blocks to override.

<basis_specs>
===============================================================================
O                    Z=   8    Mass=  16.000        Charge=-0.24233    
Lmxo=2 Lmxkb= 3    BasisType=split      Semic=F
L=0  Nsemic=0  Cnfigmx=2
          n=1  nzeta=2  polorb=0
            splnorm:   0.15000    
               vcte:    23.361    
               rinn:    3.3972    
               qcoe:    0.0000    
               qyuk:    0.0000    
               qwid:   0.10000E-01
                rcs:    4.5077      2.6407    
            lambdas:    1.0000      1.0000    
L=1  Nsemic=0  Cnfigmx=2
          n=1  nzeta=2  polorb=0
            splnorm:   0.15000    
               vcte:    2.7833    
               rinn:    5.1425    
               qcoe:    0.0000    
               qyuk:    0.0000    
               qwid:   0.10000E-01
                rcs:    6.1500      2.5936    
            lambdas:    1.0000      1.0000    
L=2  Nsemic=0  Cnfigmx=3
          n=1  nzeta=1  polorb=0
            splnorm:   0.15000    
               vcte:    63.982    
               rinn:   0.16104    
               qcoe:    0.0000    
               qyuk:    0.0000    
               qwid:   0.10000E-01
                rcs:    3.5440    
            lambdas:    1.0000    
-------------------------------------------------------------------------------
L=0  Nkbl=1  erefs: 0.17977+309
L=1  Nkbl=1  erefs: 0.17977+309
L=2  Nkbl=1  erefs: 0.17977+309
L=3  Nkbl=1  erefs: 0.17977+309
===============================================================================
</basis_specs>

atom: Called for O                     (Z =   8)

read_vps: Pseudopotential generation method:
read_vps: ATM3      Troullier-Martins                       
Total valence charge:    6.00000

read_vps: Pseudopotential includes a core correction:
read_vps: Pseudo-core for xc-correction

xc_check: Exchange-correlation functional:
xc_check: GGA Perdew, Burke & Ernzerhof 1996
V l=0 = -2*Zval/r beyond r=  1.1278
V l=1 = -2*Zval/r beyond r=  1.1278
V l=2 = -2*Zval/r beyond r=  1.1278
V l=3 = -2*Zval/r beyond r=  1.1278
All V_l potentials equal beyond r=  1.1278
This should be close to max(r_c) in ps generation
All pots = -2*Zval/r beyond r=  1.1278

VLOCAL1: 99.0% of the norm of Vloc inside     34.126 Ry
VLOCAL1: 99.9% of the norm of Vloc inside     77.774 Ry
atom: Maximum radius for 4*pi*r*r*local-pseudopot. charge    1.37759
atom: Maximum radius for r*vlocal+2*Zval:    1.18566
GHOST: No ghost state for L =  0
GHOST: No ghost state for L =  1
GHOST: No ghost state for L =  2
GHOST: No ghost state for L =  3

KBgen: Kleinman-Bylander projectors: 
   l= 0   rc=  1.262145   el= -1.757696   Ekb=  9.253654   kbcos=  0.328369
   l= 1   rc=  1.262145   el= -0.664256   Ekb= -7.897175   kbcos= -0.393093
   l= 2   rc=  1.343567   el=  0.002031   Ekb= -1.922379   kbcos= -0.003517
   l= 3   rc=  1.394919   el=  0.003153   Ekb= -0.738278   kbcos= -0.000358

KBgen: Total number of  Kleinman-Bylander projectors:   16
atom: -------------------------------------------------------------------------

atom: SANKEY-TYPE ORBITALS:
atom: Selected multiple-zeta basis: split     

atom: basis set generated (by rescaling the valence charge)
atom: for an anion of charge  -0.2423

SPLIT: Orbitals with angular momentum L= 0

SPLIT: Basis orbitals for state 2s

   izeta = 1
                 lambda =    1.000000
                     rc =    4.574469
                 energy =   -1.754694
                kinetic =    1.490893
    potential(screened) =   -3.245588
       potential(ionic) =  -11.054474

   izeta = 2
                 rmatch =    2.639108
              splitnorm =    0.147036
                 energy =   -1.549986
                kinetic =    2.329570
    potential(screened) =   -3.879556
       potential(ionic) =  -12.328390

SPLIT: Orbitals with angular momentum L= 1

SPLIT: Basis orbitals for state 2p

   izeta = 1
                 lambda =    1.000000
                     rc =    6.174996
                 energy =   -0.657397
                kinetic =    4.283704
    potential(screened) =   -4.941101
       potential(ionic) =  -12.288569

   izeta = 2
                 rmatch =    2.639108
              splitnorm =    0.214885
                 energy =   -0.410839
                kinetic =    7.128014
    potential(screened) =   -7.538853
       potential(ionic) =  -16.113011

SPLIT: Orbitals with angular momentum L= 2

SPLIT: Basis orbitals for state 3d

   izeta = 1
                 lambda =    1.000000
                     rc =    3.562532
                 energy =    3.658838
                kinetic =    6.488135
    potential(screened) =   -2.829297
       potential(ionic) =  -10.001422
atom: Total number of Sankey-type orbitals: 13

atm_pop: Valence configuration (for local Pseudopot. screening):
 2s( 2.00)                                                            
 2p( 4.00)                                                            
 3d( 0.00)                                                            
Vna: chval, zval:    6.00000   6.00000

Vna:  Cut-off radius for the neutral-atom potential:   6.174996
comcore: Pseudo-core radius Rcore=  1.377587

atom: _________________________________________________________________________

<basis_specs>
===============================================================================
H                    Z=   1    Mass=  1.0100        Charge= 0.46527    
Lmxo=1 Lmxkb= 2    BasisType=split      Semic=F
L=0  Nsemic=0  Cnfigmx=1
          n=1  nzeta=2  polorb=0
            splnorm:   0.15000    
               vcte:    99.931    
               rinn:    2.5993    
               qcoe:    0.0000    
               qyuk:    0.0000    
               qwid:   0.10000E-01
                rcs:    4.2036      1.8446    
            lambdas:    1.0000      1.0000    
L=1  Nsemic=0  Cnfigmx=2
          n=1  nzeta=1  polorb=0
            splnorm:   0.15000    
               vcte:    24.565    
               rinn:    2.2023    
               qcoe:    0.0000    
               qyuk:    0.0000    
               qwid:   0.10000E-01
                rcs:    3.5282    
            lambdas:    1.0000    
-------------------------------------------------------------------------------
L=0  Nkbl=1  erefs: 0.17977+309
L=1  Nkbl=1  erefs: 0.17977+309
L=2  Nkbl=1  erefs: 0.17977+309
===============================================================================
</basis_specs>

atom: Called for H                     (Z =   1)

read_vps: Pseudopotential generation method:
read_vps: ATM 3.2.2 Troullier-Martins                       
Total valence charge:    0.60000

atom: Pseudopotential generated from an ionic configuration
atom: with net charge 0.40

xc_check: Exchange-correlation functional:
xc_check: GGA Perdew, Burke & Ernzerhof 1996
xc_check: WARNING: Pseudopotential generated with GGA revPBE functional
V l=0 = -2*Zval/r beyond r=  1.2343
V l=1 = -2*Zval/r beyond r=  1.2189
V l=2 = -2*Zval/r beyond r=  1.2189
All V_l potentials equal beyond r=  1.2343
This should be close to max(r_c) in ps generation
All pots = -2*Zval/r beyond r=  1.2343

VLOCAL1: 99.0% of the norm of Vloc inside     28.493 Ry
VLOCAL1: 99.9% of the norm of Vloc inside     64.935 Ry
atom: Maximum radius for 4*pi*r*r*local-pseudopot. charge    1.45251
atom: Maximum radius for r*vlocal+2*Zval:    1.21892
GHOST: No ghost state for L =  0
GHOST: No ghost state for L =  1
GHOST: No ghost state for L =  2

KBgen: Kleinman-Bylander projectors: 
   l= 0   rc=  1.364359   el= -0.835481   Ekb= -2.050473   kbcos= -0.374935
   l= 1   rc=  1.434438   el= -0.083696   Ekb= -0.439790   kbcos= -0.040392
   l= 2   rc=  1.470814   el= -0.018512   Ekb= -0.135383   kbcos= -0.004767

KBgen: Total number of  Kleinman-Bylander projectors:    9
atom: -------------------------------------------------------------------------

atom: SANKEY-TYPE ORBITALS:
atom: Selected multiple-zeta basis: split     

atom: basis set generated (by rescaling the valence charge)
atom: for a cation of charge   0.4653

SPLIT: Orbitals with angular momentum L= 0

SPLIT: Basis orbitals for state 1s

   izeta = 1
                 lambda =    1.000000
                     rc =    4.260636
                 energy =   -0.844786
                kinetic =    1.360018
    potential(screened) =   -2.204804
       potential(ionic) =   -2.290935

   izeta = 2
                 rmatch =    1.865767
              splitnorm =    0.575404
                 energy =    0.510436
                kinetic =    4.363202
    potential(screened) =   -3.852766
       potential(ionic) =   -3.849391

SPLIT: Orbitals with angular momentum L= 1

SPLIT: Basis orbitals for state 2p

   izeta = 1
                 lambda =    1.000000
                     rc =    3.576223
                 energy =    0.852340
                kinetic =    2.004908
    potential(screened) =   -1.152567
       potential(ionic) =   -1.298457
atom: Total number of Sankey-type orbitals:  5

atm_pop: Valence configuration (for local Pseudopot. screening):
 1s( 1.00)                                                            
 2p( 0.00)                                                            
Vna: chval, zval:    1.00000   1.00000

Vna:  Cut-off radius for the neutral-atom potential:   4.260636

atom: _________________________________________________________________________

prinput: Basis input ----------------------------------------------------------

PAO.BasisType split     

%block ChemicalSpeciesLabel
    1    8 O                       # Species index, atomic number, species label
    2    1 H                       # Species index, atomic number, species label
%endblock ChemicalSpeciesLabel

%block PAO.Basis                 # Define Basis set
O                     3  -0.242            # Label, l-shells, ionic net charge
 n=2   0   2                         # n, l, Nzeta 
   4.574      2.639   
   1.000      1.000   
 n=2   1   2                         # n, l, Nzeta 
   6.175      2.639   
   1.000      1.000   
 n=3   2   1                         # n, l, Nzeta 
   3.563   
   1.000   
H                     2   0.465            # Label, l-shells, ionic net charge
 n=1   0   2                         # n, l, Nzeta 
   4.261      1.866   
   1.000      1.000   
 n=2   1   1                         # n, l, Nzeta 
   3.576   
   1.000   
%endblock PAO.Basis

prinput: ----------------------------------------------------------------------

coor:   Atomic-coordinates input format  =     Cartesian coordinates
coor:                                          (in Angstroms)

siesta: Atomic coordinates (Bohr) and species
siesta:     26.49397   0.45353   4.66763  1        1
siesta:     26.96640   1.47399   3.25033  2        2
siesta:     25.77587   1.62517   5.85815  2        3
siesta:     20.33346  14.00288  21.97752  1        4
siesta:     21.22163  14.47531  20.46574  2        5
siesta:     18.59491  14.07847  21.50509  2        6
siesta:     11.07380   3.60938  13.00132  1        7
siesta:     11.41395   5.36682  12.83125  2        8
siesta:     11.58403   2.89128  11.43285  2        9
siesta:     14.09736  13.00132  25.01998  1       10
siesta:     14.15405  13.00132  26.83412  2       11
siesta:     13.53044  11.33836  24.56645  2       12
siesta:     17.17762   8.63605  20.03110  1       13
siesta:     16.83747   9.24076  18.34925  2       14
siesta:     18.95396   8.86282  20.23897  2       15
siesta:     22.75231   1.79524   9.37305  1       16
siesta:     21.27832   2.30547   8.48487  2       17
siesta:     23.45151   3.32592  10.03445  2       18
siesta:     27.17427  25.60580  26.85302  1       19
siesta:     28.61046  25.54911  27.94906  2       20
siesta:     27.57112  24.43417  25.53021  2       21
siesta:     24.09402  25.03888   4.02512  1       22
siesta:     23.67828  24.96329   2.26767  2       23
siesta:     24.75542  26.70184   4.28968  2       24
siesta:     28.81833  16.93195   4.57314  1       25
siesta:     29.17738  18.65160   4.13850  2       26
siesta:     29.02620  16.00599   3.04246  2       27
siesta:      3.17474   7.14317  26.24831  1       28
siesta:      1.79524   7.97465  25.45462  2       29
siesta:      4.62983   8.12583  25.81367  2       30
siesta:      1.56847   2.39995  27.68450  1       31
siesta:      0.15118   1.90862  26.68294  2       32
siesta:      2.22988   3.85504  26.85302  2       33
siesta:     21.97752   5.87705  29.00731  1       34
siesta:     21.33502   4.25189  28.51598  2       35
siesta:     21.18384   7.02978  27.87347  2       36
siesta:      2.81569  25.05778  28.47818  1       37
siesta:      3.53379  25.98374  29.85768  2       38
siesta:      3.38261  23.35702  28.74275  2       39
siesta:      2.05980   4.45976  19.10514  1       40
siesta:      0.77479   4.66763  17.83902  2       41
siesta:      3.36371   5.61249  18.61381  2       42
siesta:      9.12738  25.19006  29.38525  1       43
siesta:     10.37460  24.79322  28.13803  2       44
siesta:      7.54001  24.81211  28.59157  2       45
siesta:     20.99487   3.64717  16.91306  1       46
siesta:     19.33191   3.02356  17.30990  2       47
siesta:     21.78855   3.83615  18.51932  2       48
siesta:      2.04091  15.04223  21.58068  1       49
siesta:      1.11494  13.51155  21.42950  2       50
siesta:      2.47554  15.13671  23.33813  2       51
siesta:     16.47842   9.58092   2.28657  1       52
siesta:     17.95241   9.54312   3.34482  2       53
siesta:     16.74298  10.97931   1.19053  2       54
siesta:     25.90816   8.05024   4.72432  1       55
siesta:     26.00264   7.02978   6.21720  2       56
siesta:     26.55066   6.99199   3.40151  2       57
siesta:     10.56357  15.04223  21.08935  1       58
siesta:     12.32102  14.72097  21.37281  2       59
siesta:      9.80768  13.41706  21.08935  2       60
siesta:      7.97465  10.88483  12.77455  1       61
siesta:      7.02978   9.93996  11.56513  2       62
siesta:      7.36993  10.33681  14.38082  2       63
siesta:      2.30547  13.43596   7.38883  1       64
siesta:      1.58737  14.41862   6.04713  2       65
siesta:      2.83459  14.64538   8.61715  2       66
siesta:     12.66117   3.38261   7.67229  1       67
siesta:     12.30212   2.05980   6.50066  2       68
siesta:     12.49109   4.91329   6.70853  2       69
siesta:     26.55066   6.27389   9.44863  1       70
siesta:     25.43572   7.59670   9.95886  2       71
siesta:     28.19473   6.99199   9.59981  2       72
siesta:      7.89906   4.51645   3.28812  1       73
siesta:      8.86282   3.19364   4.06291  2       74
siesta:      6.29279   3.74166   2.91018  2       75
siesta:     28.85613  22.79011   3.74166  1       76
siesta:     27.43883  23.79166   4.25189  2       77
siesta:     30.29232  23.82946   4.08181  2       78
siesta:     15.38238  23.18695   9.52422  1       79
siesta:     16.47842  22.63893  10.84703  2       80
siesta:     16.47842  23.82946   8.23921  2       81
siesta:     23.64048  15.23120  17.51777  1       82
siesta:     24.35858  13.64383  17.08313  2       83
siesta:     24.45307  16.42173  16.42173  2       84
siesta:     23.45151   9.97776  10.90372  1       85
siesta:     21.73186   9.46753  11.13049  2       86
siesta:     23.39482  11.77300  11.01711  2       87
siesta:     11.01711   5.66918  18.25476  1       88
siesta:     11.41395   5.40462  16.49732  2       89
siesta:     11.09270   4.02512  18.97286  2       90
siesta:     22.35547  25.05778  19.72875  1       91
siesta:     21.20274  24.71763  21.08935  2       92
siesta:     23.43261  23.62159  19.67206  2       93
siesta:     21.76965  16.79967  27.74119  1       94
siesta:     21.46730  17.95241  26.38059  2       95
siesta:     22.80900  17.72564  28.89392  2       96
siesta:     21.59958  19.29411  23.22474  1       97
siesta:     20.42795  18.14138  22.44996  2       98
siesta:     23.22474  18.50043  22.99798  2       99
siesta:     20.22008   7.36993   4.81880  1      100
siesta:     21.71296   8.22031   5.40462  2      101
siesta:     20.71141   6.61404   3.25033  2      102
siesta:     16.42173   1.88973   2.19208  1      103
siesta:     15.79812   3.17474   1.07714  2      104
siesta:     14.94774   1.09604   2.85349  2      105
siesta:      8.46598  10.63916   3.53379  1      106
siesta:      9.24076  10.97931   1.94642  2      107
siesta:      8.84392  12.09425   4.55424  2      108
siesta:     17.10203  15.02333  29.66871  1      109
siesta:     15.89260  16.04378  28.76164  2      110
siesta:     18.70830  15.53355  29.02620  2      111
siesta:      5.78256   4.19519  12.35881  1      112
siesta:      4.89439   2.60782  12.32102  2      113
siesta:      7.48332   3.74166  12.73676  2      114
siesta:     14.04067  22.35547  16.95085  1      115
siesta:     13.34147  20.74920  16.49732  2      116
siesta:     14.17295  23.24364  15.38238  2      117
siesta:      8.42818  16.00599  26.19161  1      118
siesta:      6.76522  15.32568  26.45618  2      119
siesta:      9.01400  15.15561  24.69873  2      120
siesta:     -0.20787  22.35547  23.26254  1      121
siesta:      1.51178  22.52554  22.77121  2      122
siesta:     -1.02045  21.63737  21.82635  2      123
siesta:      1.49288   8.88172   9.33525  1      124
siesta:      1.92752  10.54468   8.76833  2      125
siesta:      3.00467   7.91796   9.16518  2      126
siesta:      4.81880  22.56334   8.10693  1      127
siesta:      4.83770  20.78700   7.78567  2      128
siesta:      5.78256  23.26254   6.74632  2      129
siesta:     16.72408   3.28812  20.10669  1      130
siesta:     16.62960   5.08337  20.06890  2      131
siesta:     15.02333   2.72121  19.86103  2      132
siesta:     29.91438  14.09736  14.75877  1      133
siesta:     29.08290  12.54779  15.13671  2      134
siesta:     28.61046  15.34458  14.85325  2      135
siesta:      8.18252  27.43883  18.78389  1      136
siesta:      6.40617  27.60891  19.02955  2      137
siesta:      8.42818  25.71918  18.31145  2      138
siesta:     27.77899   6.23610  21.73186  1      139
siesta:     29.21518   5.57469  20.86258  2      140
siesta:     27.11758   4.83770  22.65783  2      141
siesta:     29.68761  13.09581   1.07714  1      142
siesta:     28.15693  12.39661   0.39684  2      143
siesta:     30.65137  11.65961   1.58737  2      144
siesta:     19.40750  24.11291  24.01843  1      145
siesta:     17.87682  24.58535  23.16805  2      146
siesta:     19.27521  22.33657  24.22630  2      147
siesta:     23.75387  12.45330   3.68497  1      148
siesta:     23.79166  13.81390   4.87550  2      149
siesta:     24.67983  11.13049   4.47865  2      150
siesta:     22.29878  21.18384   9.01400  1      151
siesta:     20.93817  20.82479  10.16673  2      152
siesta:     21.97752  22.88459   8.46598  2      153
siesta:      6.85971  10.67696  25.98374  1      154
siesta:      7.23765  10.31791  24.26409  2      155
siesta:      8.06913   9.71320  26.92861  2      156
siesta:     13.13360  18.44373  28.89392  1      157
siesta:     11.50844  18.34925  28.11914  2      158
siesta:     12.98242  19.76654  30.12225  2      159
siesta:     26.19161   2.75900  25.09557  1      160
siesta:     24.45307   3.23143  24.90660  2      161
siesta:     26.49397   1.62517  23.71607  2      162
siesta:      8.46598  22.33657   4.53534  1      163
siesta:      7.86126  20.80589   3.76056  2      164
siesta:      8.22031  23.60269   3.26923  2      165
siesta:     25.37903  10.71475  16.27055  1      166
siesta:     24.45307   9.67540  17.42328  2      167
siesta:     24.81211  10.18563  14.62649  2      168
siesta:     20.50354   0.94486  23.43261  1      169
siesta:     19.97441   1.02045  25.15226  2      170
siesta:     19.10514   1.58737  22.48775  2      171
siesta:     14.02177   7.88016  24.11291  1      172
siesta:     15.04223   8.50377  22.75231  2      173
siesta:     13.36037   6.31169  23.50820  2      174
siesta:     11.71631  17.83902  16.93195  1      175
siesta:     10.96042  17.36659  18.51932  2      176
siesta:     10.60137  17.15872  15.68473  2      177
siesta:     17.65005   4.08181   8.08803  1      178
siesta:     17.97130   5.32903   6.80302  2      179
siesta:     15.85481   4.08181   8.25811  2      180
siesta:      6.51956  17.83902   2.72121  1      181
siesta:      5.65028  16.28945   3.04246  2      182
siesta:      5.97154  18.33035   1.07714  2      183
siesta:     18.57602  20.69251  13.19029  1      184
siesta:     18.25476  19.50198  14.51310  2      185
siesta:     18.57602  22.29878  14.02177  2      186
siesta:      3.42041  26.90971   4.25189  1      187
siesta:      4.38417  28.30811   4.89439  2      188
siesta:      2.04091  26.73964   5.40462  2      189
siesta:     29.19628  28.76164  14.77766  1      190
siesta:     28.13803  27.34435  14.49421  2      191
siesta:     30.21673  28.30811  16.19496  2      192
siesta:     12.73676  26.24831  13.19029  1      193
siesta:     13.60603  27.83568  13.11470  2      194
siesta:     13.03912  25.49242  11.56513  2      195
siesta:     26.26720  24.86881  12.83125  1      196
siesta:     24.62314  24.47196  12.18874  2      197
siesta:     27.36325  23.71607  11.96197  2      198
siesta:     11.24387  13.56824  29.70651  1      199
siesta:     12.50999  14.85325  29.91438  2      200
siesta:     10.05335  14.30523  28.55377  2      201
siesta:     22.58224  24.33968  28.49708  1      202
siesta:     21.37281  24.35858  27.13648  2      203
siesta:     24.15071  24.77432  27.70340  2      204
siesta:     11.82969   0.90707  20.59802  1      205
siesta:     11.30057   0.96376  22.33657  2      206
siesta:     10.73365  -0.32125  19.82323  2      207
siesta:      2.66451   4.34637   3.57158  1      208
siesta:      2.34326   6.10382   3.72276  2      209
siesta:      2.38106   3.96843   1.83304  2      210
siesta:     28.96951  18.34925  27.59001  1      211
siesta:     28.04355  18.51932  26.04044  2      212
siesta:     27.76009  18.67050  28.87503  2      213
siesta:      7.76678  25.64359  11.73520  1      214
siesta:      9.16518  26.32390  12.64227  2      215
siesta:      8.16362  23.88615  11.54623  2      216
siesta:     21.33502  26.60735  10.48798  1      217
siesta:     21.37281  26.66405  12.28322  2      218
siesta:     22.22319  28.08134   9.95886  2      219
siesta:      4.83770  10.43129  17.66895  1      220
siesta:      4.30858  12.15094  17.70674  2      221
siesta:      3.45820   9.54312  16.89416  2      222
siesta:      6.84081   7.82347   8.69274  1      223
siesta:      6.55735   6.33059   9.65650  2      224
siesta:      7.40773   7.21876   7.08648  2      225
siesta:     17.04534  10.56357  15.36348  1      226
siesta:     18.46263   9.69430  14.64538  2      227
siesta:     15.62804   9.99666  14.39972  2      228
siesta:     26.43728  28.11914  21.73186  1      229
siesta:     26.39948  27.74119  23.48931  2      230
siesta:     24.92550  27.36325  21.07045  2      231
siesta:     20.40905   1.05825  28.81833  1      232
siesta:     19.19963   1.53068  30.08445  2      233
siesta:     20.54133  -0.73699  28.96951  2      234
siesta:      9.78879  14.73987   6.16051  1      235
siesta:      9.46753  16.02488   4.93219  2      236
siesta:     11.56513  14.89105   6.50066  2      237
siesta:     24.49086  19.29411   1.28501  1      238
siesta:     23.92394  18.42484   2.77790  2      239
siesta:     24.58535  21.03266   1.79524  2      240
siesta:     24.37748  16.51621   7.16206  1      241
siesta:     26.07823  16.74298   6.55735  2      242
siesta:     23.71607  18.19807   7.31324  2      243
siesta:     15.15561  25.53021  21.63737  1      244
siesta:     14.75877  27.28766  21.35391  2      245
siesta:     15.21230  24.81211  19.97441  2      246
siesta:      3.26923  14.89105  26.55066  1      247
siesta:      2.68341  13.19029  26.58846  2      248
siesta:      2.11649  15.79812  27.57112  2      249
siesta:      0.86927   7.99354  15.09892  1      250
siesta:      1.20943   8.73054  13.47375  2      251
siesta:     -0.83148   7.44552  15.00443  2      252
siesta:      9.03289   6.42507  28.25142  1      253
siesta:      8.29590   5.99043  29.83879  2      254
siesta:     10.80924   6.21720  28.49708  2      255
siesta:     29.17738  11.18718  24.15071  1      256
siesta:     28.47818   9.82658  23.18695  2      257
siesta:     27.98686  11.47064  25.47352  2      258
siesta:     10.88483  26.15382   7.69119  1      259
siesta:     10.60137  24.39637   7.40773  2      260
siesta:      9.88327  26.53177   9.16518  2      261
siesta:     19.74765   9.88327  25.88926  1      262
siesta:     19.06734  11.31946  25.01998  2      263
siesta:     21.03266  10.56357  26.94751  2      264
siesta:      4.00622  20.01221  28.44039  1      265
siesta:      4.96998  18.99176  27.28766  2      266
siesta:      2.28657  19.70985  27.98686  2      267
siesta:     18.40594  24.47196   5.36682  1      268
siesta:     20.08780  23.82946   5.21565  2      269
siesta:     18.10358  25.32234   3.77945  2      270
siesta:     26.62625  18.10358  14.28634  1      271
siesta:     27.81678  19.29411  13.60603  2      272
siesta:     25.62470  17.61225  12.86904  2      273
siesta:      5.17785  28.87503  24.90660  1      274
siesta:      3.93063  28.28921  23.73497  2      275
siesta:      4.21409  29.61202  26.24831  2      276
siesta:      2.94797  20.65471  17.06423  1      277
siesta:      3.91173  21.33502  18.42484  2      278
siesta:      3.55269  18.95396  16.87526  2      279
siesta:      0.88817  21.37281  12.16984  1      280
siesta:      1.90862  22.29878  10.99821  2      281
siesta:      1.70075  21.61848  13.75721  2      282
siesta:      3.72276  17.61225  10.11004  1      283
siesta:      5.17785  17.36659  11.16829  2      284
siesta:      2.41885  18.14138  11.22498  2      285
siesta:      9.42974   2.58893  24.71763  1      286
siesta:      8.08803   1.37950  24.75542  2      287
siesta:      8.88172   3.89284  25.85146  2      288
siesta:      8.86282  20.69251  11.11159  1      289
siesta:      7.69119  20.69251   9.75099  2      290
siesta:      8.65495  19.04845  11.86748  2      291
siesta:     12.32102   8.03134   5.51800  1      292
siesta:     13.51155   8.27700   4.17630  2      293
siesta:     10.84703   8.91951   4.95108  2      294
siesta:      9.01400  20.67361  22.14760  1      295
siesta:      8.65495  21.80745  20.78700  2      296
siesta:      9.16518  19.04845  21.35391  2      297
siesta:     16.93195   0.52912  12.71786  1      298
siesta:     16.70519   2.02201  11.71631  2      299
siesta:     18.00910  -0.52912  11.71631  2      300
siesta:      9.27856   9.59981  20.93817  1      301
siesta:      7.55891   9.84548  20.40905  2      302
siesta:      9.76989   8.05024  20.12559  2      303
siesta:      3.15584   9.58092   3.38261  1      304
siesta:      2.66451   9.90217   5.10226  2      305
siesta:      4.85660  10.20453   3.26923  2      306
siesta:     13.85170  21.58068   4.04402  1      307
siesta:     15.25010  22.33657   4.87550  2      308
siesta:     12.39661  22.39326   4.76211  2      309
siesta:     26.02154  17.00754  21.80745  1      310
siesta:     27.62781  16.21386  22.09091  2      311
siesta:     25.41683  16.27055  20.27677  2      312
siesta:     26.58846  21.86414  18.25476  1      313
siesta:     26.70184  20.29567  17.36659  2      314
siesta:     26.55066  23.11136  16.95085  2      315
siesta:      2.21098  28.74275  20.10669  1      316
siesta:      0.43464  28.55377  20.44684  2      317
siesta:      2.49444  30.51909  20.23897  2      318
siesta:     11.73520  23.28144  25.60580  1      319
siesta:     10.75255  22.07201  24.67983  2      320
siesta:     12.88794  23.98063  24.37748  2      321
siesta:     25.22785  11.58403  28.17583  1      322
siesta:     24.62314  13.26588  28.00575  2      323
siesta:     24.45307  10.96042  29.66871  2      324
siesta:     27.00420   3.77945  16.32724  1      325
siesta:     27.98686   2.72121  15.25010  2      326
siesta:     25.32234   3.70386  15.64694  2      327
siesta:     14.30523   6.25500  28.83723  1      328
siesta:     15.19340   7.52111  29.76320  2      329
siesta:     14.15405   6.93530  27.17427  2      330
siesta:      4.93219  24.26409  21.05156  1      331
siesta:      3.85504  25.70029  20.76810  2      332
siesta:      5.95264  24.73652  22.44996  2      333
siesta:     17.72564  18.08469   4.06291  1      334
siesta:     17.53667  16.98864   2.62672  2      335
siesta:     16.45952  19.35080   3.83615  2      336
siesta:     18.06579  14.68318  12.85014  1      337
siesta:     17.47997  13.43596  14.02177  2      338
siesta:     17.02644  14.45641  11.37616  2      339
siesta:      5.61249   1.24722   6.87861  1      340
siesta:      4.89439   2.81569   6.31169  2      341
siesta:      4.72432   0.85038   8.39039  2      342
siesta:      4.34637  15.85481  16.96975  1      343
siesta:      3.70386  15.83591  18.67050  2      344
siesta:      3.04246  15.13671  15.96819  2      345
siesta:     12.45330   8.97620  12.33992  1      346
siesta:     10.84703   9.73209  12.66117  2      347
siesta:     12.69896   9.18407  10.56357  2      348
siesta:     22.37437   9.14628  19.86103  1      349
siesta:     22.43106  10.37460  21.20274  2      350
siesta:     23.43261   7.80457  20.42795  2      351
siesta:     14.62649  15.96819   8.40928  1      352
siesta:     13.09581  16.79967   8.90061  2      353
siesta:     15.38238  17.08313   7.21876  2      354
siesta:      0.01890  27.23096   8.12583  1      355
siesta:      0.94486  28.17583   9.35415  2      356
siesta:     -0.96376  28.47818   7.23765  2      357
siesta:      8.82502  22.63893  17.02644  1      358
siesta:      8.48487  22.97908  15.28789  2      359
siesta:     10.60137  22.86570  17.19651  2      360
siesta:     15.81701  10.62027   8.01244  1      361
siesta:     14.58869   9.95886   6.85971  2      362
siesta:     15.81701  12.39661   7.72898  2      363
siesta:     11.50844  29.47974   4.15740  1      364
siesta:     10.97931  28.78054   2.57003  2      365
siesta:     11.01711  28.25142   5.38572  2      366
siesta:     19.38860  25.56800  15.51466  1      367
siesta:     20.18228  25.39793  17.12093  2      368
siesta:     19.12404  27.34435  15.32568  2      369
siesta:     23.26254  15.04223  11.75410  1      370
siesta:     21.56178  15.17451  12.32102  2      371
siesta:     23.16805  15.30679   9.95886  2      372
siesta:     19.10514   7.84237  10.99821  1      373
siesta:     18.67050   6.40617   9.97776  2      374
siesta:     18.16028   9.20297  10.28011  2      375
siesta:     26.62625   4.04402   1.28501  1      376
siesta:     24.92550   4.08181   0.66140  2      377
siesta:     27.60891   3.32592  -0.05669  2      378
siesta:      3.32592  29.34746  11.67851  1      379
siesta:      4.64873  28.19473  12.15094  2      380
siesta:      1.88973  28.81833  12.64227  2      381
siesta:      8.10693  16.10047  13.19029  1      382
siesta:      6.97309  16.51621  14.53200  2      383
siesta:      8.06913  14.28634  13.13360  2      384

siesta: System type = bulk      

initatomlists: Number of atoms, orbitals, and projectors:    384  2944  4352

siesta: ******************** Simulation parameters ****************************
siesta:
siesta: The following are some of the parameters of the simulation.
siesta: A complete list of the parameters used, including default values,
siesta: can be found in file out.fdf
siesta:
redata: Non-Collinear-spin run           =     F
redata: SpinPolarized (Up/Down) run      =     F
redata: Number of spin components        =     1
redata: Long output                      =     F
redata: Number of Atomic Species         =        2
redata: Charge density info will appear in .RHO file
redata: Write Mulliken Pop.              =     NO
redata: Mesh Cutoff                      =   150.0000  Ry
redata: Net charge of the system         =     0.0000 |e|
redata: Min. number of SCF Iter          =        0
redata: Max. number of SCF Iter          =       50
redata: Mix DM or H after convergence    =     F
redata: Recompute H after scf cycle      =     F
redata: Performing Pulay mixing using    =     3 iterations
redata: Mix DM in first SCF step ?       =     F
redata: Write Pulay info on disk?        =     F
redata: Discard 1st Pulay DM after  kick =     F
redata: New DM Mixing Weight             =     0.3000
redata: New DM Occupancy tolerance       = 0.000000000001
redata: No kicks to SCF
redata: DM Mixing Weight for Kicks       =     0.5000
redata: DM Tolerance for SCF             =     0.000100
redata: Require (free) Energy convergence in SCF =     F
redata: DM (free)Energy tolerance for SCF =     0.000010 eV
redata: Require Harris convergence for SCF =     F
redata: DM Harris energy tolerance for SCF =     0.000010 eV
redata: Using Saved Data (generic)   =     F
redata: Use continuation files for DM    =     F
redata: Neglect nonoverlap interactions  =     F
redata: Method of Calculation            =     old SLEPc
redata: Fix the spin of the system       =     F
redata: Dynamics option                  =     Single-point calculation
redata: ***********************************************************************
Total number of electrons:  1024.000000
Total ionic charge:  1024.000000

* ProcessorY, Blocksize:    8  23


* Orbital distribution balance (max,min):    23    23

 Kpoints in:  1 . Kpoints trimmed:  1

siesta: k-grid: Number of k-points =     1
siesta: k-grid: Cutoff (effective) =     7.823 Ang
siesta: k-grid: Supercell and displacements
siesta: k-grid:    1   0   0      0.000
siesta: k-grid:    0   1   0      0.000
siesta: k-grid:    0   0   1      0.000

                     ====================================
                        Single-point calculation
                     ====================================

outcell: Unit cell vectors (Ang):
       15.646046    0.000000    0.000000
        0.000000   15.646046    0.000000
        0.000000    0.000000   15.646046

outcell: Cell vector modules (Ang)   :   15.646046   15.646046   15.646046
outcell: Cell angles (23,13,12) (deg):     90.0000     90.0000     90.0000
outcell: Cell volume (Ang**3)        :   3830.1327
New_DM. Step:     1
Initializing Density Matrix...
New grid distribution:   1
           1       1:   60    1:    8    1:    4
           2       1:   60    1:    8    5:    8
           3       1:   60    1:    8    9:   12
           4       1:   60    1:    8   13:   16
           5       1:   60    1:    8   17:   20
           6       1:   60    1:    8   21:   24
           7       1:   60    1:    8   25:   28
           8       1:   60    1:    8   29:   32
           9       1:   60    1:    8   33:   36
          10       1:   60    1:    8   37:   40
          11       1:   60    1:    8   41:   44
          12       1:   60    1:    8   45:   48
          13       1:   60    1:    8   49:   51
          14       1:   60    1:    8   52:   54
          15       1:   60    1:    8   55:   57
          16       1:   60    1:    8   58:   60
          17       1:   60    9:   16    1:    4
          18       1:   60    9:   16    5:    8
          19       1:   60    9:   16    9:   12
          20       1:   60    9:   16   13:   16
          21       1:   60    9:   16   17:   20
          22       1:   60    9:   16   21:   24
          23       1:   60    9:   16   25:   28
          24       1:   60    9:   16   29:   32
          25       1:   60    9:   16   33:   36
          26       1:   60    9:   16   37:   40
          27       1:   60    9:   16   41:   44
          28       1:   60    9:   16   45:   48
          29       1:   60    9:   16   49:   51
          30       1:   60    9:   16   52:   54
          31       1:   60    9:   16   55:   57
          32       1:   60    9:   16   58:   60
          33       1:   60   17:   24    1:    4
          34       1:   60   17:   24    5:    8
          35       1:   60   17:   24    9:   12
          36       1:   60   17:   24   13:   16
          37       1:   60   17:   24   17:   20
          38       1:   60   17:   24   21:   24
          39       1:   60   17:   24   25:   28
          40       1:   60   17:   24   29:   32
          41       1:   60   17:   24   33:   36
          42       1:   60   17:   24   37:   40
          43       1:   60   17:   24   41:   44
          44       1:   60   17:   24   45:   48
          45       1:   60   17:   24   49:   51
          46       1:   60   17:   24   52:   54
          47       1:   60   17:   24   55:   57
          48       1:   60   17:   24   58:   60
          49       1:   60   25:   32    1:    4
          50       1:   60   25:   32    5:    8
          51       1:   60   25:   32    9:   12
          52       1:   60   25:   32   13:   16
          53       1:   60   25:   32   17:   20
          54       1:   60   25:   32   21:   24
          55       1:   60   25:   32   25:   28
          56       1:   60   25:   32   29:   32
          57       1:   60   25:   32   33:   36
          58       1:   60   25:   32   37:   40
          59       1:   60   25:   32   41:   44
          60       1:   60   25:   32   45:   48
          61       1:   60   25:   32   49:   51
          62       1:   60   25:   32   52:   54
          63       1:   60   25:   32   55:   57
          64       1:   60   25:   32   58:   60
          65       1:   60   33:   39    1:    4
          66       1:   60   33:   39    5:    8
          67       1:   60   33:   39    9:   12
          68       1:   60   33:   39   13:   16
          69       1:   60   33:   39   17:   20
          70       1:   60   33:   39   21:   24
          71       1:   60   33:   39   25:   28
          72       1:   60   33:   39   29:   32
          73       1:   60   33:   39   33:   36
          74       1:   60   33:   39   37:   40
          75       1:   60   33:   39   41:   44
          76       1:   60   33:   39   45:   48
          77       1:   60   33:   39   49:   51
          78       1:   60   33:   39   52:   54
          79       1:   60   33:   39   55:   57
          80       1:   60   33:   39   58:   60
          81       1:   60   40:   46    1:    4
          82       1:   60   40:   46    5:    8
          83       1:   60   40:   46    9:   12
          84       1:   60   40:   46   13:   16
          85       1:   60   40:   46   17:   20
          86       1:   60   40:   46   21:   24
          87       1:   60   40:   46   25:   28
          88       1:   60   40:   46   29:   32
          89       1:   60   40:   46   33:   36
          90       1:   60   40:   46   37:   40
          91       1:   60   40:   46   41:   44
          92       1:   60   40:   46   45:   48
          93       1:   60   40:   46   49:   51
          94       1:   60   40:   46   52:   54
          95       1:   60   40:   46   55:   57
          96       1:   60   40:   46   58:   60
          97       1:   60   47:   53    1:    4
          98       1:   60   47:   53    5:    8
          99       1:   60   47:   53    9:   12
         100       1:   60   47:   53   13:   16
         101       1:   60   47:   53   17:   20
         102       1:   60   47:   53   21:   24
         103       1:   60   47:   53   25:   28
         104       1:   60   47:   53   29:   32
         105       1:   60   47:   53   33:   36
         106       1:   60   47:   53   37:   40
         107       1:   60   47:   53   41:   44
         108       1:   60   47:   53   45:   48
         109       1:   60   47:   53   49:   51
         110       1:   60   47:   53   52:   54
         111       1:   60   47:   53   55:   57
         112       1:   60   47:   53   58:   60
         113       1:   60   54:   60    1:    4
         114       1:   60   54:   60    5:    8
         115       1:   60   54:   60    9:   12
         116       1:   60   54:   60   13:   16
         117       1:   60   54:   60   17:   20
         118       1:   60   54:   60   21:   24
         119       1:   60   54:   60   25:   28
         120       1:   60   54:   60   29:   32
         121       1:   60   54:   60   33:   36
         122       1:   60   54:   60   37:   40
         123       1:   60   54:   60   41:   44
         124       1:   60   54:   60   45:   48
         125       1:   60   54:   60   49:   51
         126       1:   60   54:   60   52:   54
         127       1:   60   54:   60   55:   57
         128       1:   60   54:   60   58:   60

InitMesh: MESH =   120 x   120 x   120 =     1728000
InitMesh: (bp) =    60 x    60 x    60 =      216000
InitMesh: Mesh cutoff (required, used) =   150.000   162.575 Ry
ExtMesh (bp) on 0 =   112 x    60 x    56 =      376320
New grid distribution:   2
           1       1:   16    1:   16   29:   37
           2      30:   45    1:   15    1:    7
           3      46:   60    1:   15    8:   14
           4       1:   16   18:   30   47:   53
           5       1:   15    1:   15   14:   20
           6       1:   15    1:   15   21:   28
           7       1:   13   30:   46   23:   28
           8      31:   46    1:   17   29:   38
           9      17:   30    1:   16   29:   39
          10      30:   43   17:   29   22:   28
          11      31:   46    1:   17   39:   44
          12       1:   15    1:   17   47:   53
          13       1:   16    1:   16   38:   46
          14       1:   15    1:   15    1:    7
          15       1:   15    1:   17   54:   60
          16      30:   43   17:   29   15:   21
          17      47:   60    1:   17   37:   44
          18      46:   60    1:   15    1:    7
          19      30:   45    1:   15    8:   14
          20       1:   15    1:   15    8:   13
          21      43:   60    1:   16   15:   20
          22      43:   60    1:   16   21:   28
          23       1:   16   16:   29    1:    7
          24      17:   29   16:   29    1:    7
          25      16:   29    1:   15   21:   28
          26      30:   45   16:   29    1:    7
          27      17:   30   18:   30   47:   53
          28      31:   47    1:   16   45:   53
          29      16:   30    1:   17   47:   53
          30      17:   30    1:   16   40:   46
          31      31:   47    1:   16   54:   60
          32       1:   15   47:   60   16:   21
          33      29:   45   30:   45   22:   28
          34      16:   29    1:   15    1:    8
          35      30:   45   16:   29    8:   14
          36      16:   29   16:   29   14:   20
          37      44:   60   17:   29   15:   22
          38      16:   29   16:   29   21:   28
          39      44:   60   17:   29   23:   28
          40      14:   30   17:   30   29:   38
          41       1:   15   47:   60   22:   28
          42       1:   13   17:   30   37:   46
          43      30:   42    1:   16   15:   20
          44      44:   60   17:   30   45:   53
          45      44:   60   47:   60   37:   44
          46      16:   29    1:   15   14:   20
          47      16:   30    1:   17   54:   60
          48      17:   30   18:   30   54:   60
          49      44:   60   47:   60   29:   36
          50      48:   60    1:   16   45:   52
          51      46:   60   16:   29    8:   14
          52       1:   16   16:   29    8:   13
          53      29:   45   30:   45   15:   21
          54       1:   15   16:   29   21:   28
          55       1:   15   16:   29   14:   20
          56      47:   60   18:   30   29:   35
          57      47:   60    1:   17   29:   36
          58      48:   60    1:   16   53:   60
          59      16:   28   47:   60   16:   21
          60      47:   60   31:   44   45:   52
          61      14:   30   17:   30   39:   46
          62      46:   60   16:   29    1:    7
          63      44:   60   17:   30   54:   60
          64       1:   13   31:   44   29:   34
          65       1:   15   30:   45    1:    7
          66      31:   43   17:   30   45:   52
          67      29:   46   30:   43    7:   14
          68      47:   60   30:   43    8:   14
          69      14:   28   30:   46   16:   22
          70       1:   13   30:   46   16:   22
          71      46:   60   30:   45   23:   28
          72      28:   50   31:   46   29:   35
          73      14:   27   31:   44   29:   35
          74      28:   50   31:   46   36:   44
          75      14:   27   31:   44   36:   43
          76       1:   13   31:   44   44:   53
          77      28:   46   31:   44   45:   53
          78       1:   13   31:   44   54:   60
          79      28:   46   31:   44   54:   60
          80      47:   60   31:   44   53:   60
          81      29:   46   30:   43    1:    6
          82      47:   60   30:   43    1:    7
          83       1:   15   30:   45    8:   15
          84      16:   28   30:   45    8:   15
          85      46:   60   30:   45   15:   22
          86      30:   42    1:   16   21:   28
          87      14:   28   30:   46   23:   28
          88      51:   60   31:   46   29:   35
          89      31:   46   18:   30   37:   44
          90      31:   43   17:   30   53:   60
          91      51:   60   31:   46   36:   44
          92      14:   27   31:   44   44:   53
          93      15:   28   46:   60    1:    9
          94      31:   46   18:   30   29:   36
          95       1:   16   18:   30   54:   60
          96      14:   27   31:   44   54:   60
          97      29:   47   44:   60    1:    8
          98       1:   14   46:   60    1:    9
          99      48:   60   44:   60    8:   14
         100       1:   14   46:   60   10:   15
         101      29:   43   46:   60   15:   22
         102      16:   28   47:   60   22:   28
         103      44:   60   46:   60   23:   28
         104       1:   15   45:   60   29:   37
         105      16:   27   45:   60   29:   36
         106      28:   43   47:   60   36:   44
         107       1:   15   45:   60   38:   43
         108      13:   27   45:   60   44:   50
         109       1:   12   45:   60   44:   51
         110      28:   47   45:   60   51:   60
         111       1:   12   45:   60   52:   60
         112      17:   29   16:   29    8:   13
         113      48:   60   45:   60   53:   60
         114      48:   60   44:   60    1:    7
         115      29:   47   44:   60    9:   14
         116      15:   28   46:   60   10:   15
         117      44:   60   46:   60   15:   22
         118       1:   13   31:   44   35:   43
         119      29:   43   46:   60   23:   28
         120      28:   43   47:   60   29:   35
         121      47:   60   18:   30   36:   44
         122       1:   13   17:   30   29:   36
         123      16:   27   45:   60   37:   43
         124      28:   47   45:   60   45:   50
         125      48:   60   45:   60   45:   52
         126      13:   27   45:   60   51:   60
         127      16:   28   30:   45    1:    7
         128      16:   29    1:   15    9:   13
New grid distribution:   3
           1      31:   45    1:   15   31:   38
           2       1:   15   46:   60   24:   30
           3      31:   45    1:   15    9:   15
           4       1:   15    1:   15   16:   23
           5      31:   45    1:   15   16:   23
           6      46:   60   46:   60   39:   45
           7      46:   60   31:   45    9:   15
           8       1:   15    1:   15   31:   38
           9      16:   30   16:   30   16:   23
          10      31:   45   46:   60   39:   45
          11       1:   15    1:   15   39:   45
          12       1:   15    1:   15   46:   53
          13      16:   30    1:   15   46:   53
          14      31:   45    1:   15   46:   53
          15      46:   60    1:   15   54:   60
          16      31:   45    1:   15   39:   45
          17      46:   60   46:   60   16:   23
          18       1:   15   16:   30    1:    8
          19      16:   30    1:   15    9:   15
          20      46:   60   16:   30    9:   15
          21      46:   60   16:   30   16:   23
          22       1:   15    1:   15    9:   15
          23      46:   60    1:   15    9:   15
          24      46:   60    1:   15   31:   38
          25      16:   30    1:   15   31:   38
          26       1:   15    1:   15   24:   30
          27      46:   60    1:   15   39:   45
          28      46:   60    1:   15   46:   53
          29      46:   60   46:   60    1:    8
          30      16:   30    1:   15   16:   23
          31      16:   30   31:   45   54:   60
          32      31:   45    1:   15   54:   60
          33      46:   60   46:   60   46:   53
          34      46:   60   16:   30    1:    8
          35       1:   15   16:   30    9:   15
          36      31:   45   16:   30    9:   15
          37       1:   15   16:   30   16:   23
          38      46:   60   16:   30   24:   30
          39       1:   15   16:   30   24:   30
          40      31:   45   16:   30   31:   38
          41      16:   30   16:   30   31:   38
          42       1:   15   46:   60   54:   60
          43      31:   45   16:   30   39:   45
          44      31:   45   16:   30   46:   53
          45       1:   15   16:   30   46:   53
          46       1:   15   31:   45   16:   23
          47      31:   45   16:   30   54:   60
          48      16:   30   16:   30   54:   60
          49      46:   60   46:   60   31:   38
          50      16:   30   16:   30    1:    8
          51      16:   30    1:   15   24:   30
          52      31:   45   31:   45    9:   15
          53      31:   45   31:   45   16:   23
          54       1:   15   31:   45   24:   30
          55      16:   30   16:   30   24:   30
          56      46:   60   16:   30   31:   38
          57       1:   15   16:   30   31:   38
          58       1:   15   31:   45   54:   60
          59      46:   60   16:   30   39:   45
          60      46:   60   16:   30   46:   53
          61      16:   30   16:   30   46:   53
          62      16:   30    1:   15    1:    8
          63      46:   60   16:   30   54:   60
          64      16:   30   16:   30   39:   45
          65      46:   60   31:   45    1:    8
          66      16:   30   31:   45    1:    8
          67      31:   45   31:   45   39:   45
          68      16:   30   31:   45    9:   15
          69      16:   30   31:   45   16:   23
          70      46:   60   31:   45   39:   45
          71      16:   30   31:   45   24:   30
          72       1:   15   31:   45   31:   38
          73      46:   60   31:   45   31:   38
          74       1:   15   16:   30   39:   45
          75      16:   30   31:   45   39:   45
          76      31:   45   31:   45   46:   53
          77      16:   30   31:   45   46:   53
          78       1:   15    1:   15    1:    8
          79      31:   45   31:   45   54:   60
          80      46:   60    1:   15   24:   30
          81      31:   45   31:   45    1:    8
          82       1:   15   31:   45    1:    8
          83      16:   30   46:   60   54:   60
          84      31:   45   46:   60    9:   15
          85      46:   60   31:   45   16:   23
          86      16:   30   16:   30    9:   15
          87      16:   30   46:   60   24:   30
          88      16:   30   31:   45   31:   38
          89      31:   45   31:   45   31:   38
          90      16:   30    1:   15   39:   45
          91       1:   15   31:   45   39:   45
          92       1:   15   31:   45   46:   53
          93      46:   60   31:   45   46:   53
          94      46:   60    1:   15   16:   23
          95      46:   60   31:   45   54:   60
          96      31:   45   16:   30   24:   30
          97      31:   45   46:   60    1:    8
          98       1:   15   46:   60    1:    8
          99      46:   60   31:   45   24:   30
         100       1:   15   46:   60    9:   15
         101       1:   15   46:   60   16:   23
         102      31:   45   31:   45   24:   30
         103      31:   45   46:   60   24:   30
         104       1:   15   46:   60   31:   38
         105      31:   45   46:   60   31:   38
         106      46:   60    1:   15    1:    8
         107      16:   30   46:   60   39:   45
         108      31:   45    1:   15   24:   30
         109       1:   15   46:   60   46:   53
         110      31:   45   16:   30    1:    8
         111      31:   45   46:   60   54:   60
         112       1:   15   16:   30   54:   60
         113      31:   45    1:   15    1:    8
         114       1:   15   31:   45    9:   15
         115      16:   30   46:   60    9:   15
         116      31:   45   46:   60   16:   23
         117      16:   30   46:   60   16:   23
         118      31:   45   16:   30   16:   23
         119      46:   60   46:   60    9:   15
         120      46:   60   46:   60   24:   30
         121      16:   30   46:   60   31:   38
         122       1:   15    1:   15   54:   60
         123       1:   15   46:   60   39:   45
         124      16:   30   46:   60   46:   53
         125      31:   45   46:   60   46:   53
         126      16:   30   46:   60    1:    8
         127      46:   60   46:   60   54:   60
         128      16:   30    1:   15   54:   60
Setting up quadratic distribution...
ExtMesh (bp) on 0 =    68 x    68 x    61 =      282064
PhiOnMesh: Number of (b)points on node 0 =                 2304
PhiOnMesh: nlist on node 0 =                74057
QETSC: Last update           = Dec 2, 2016
QETSC: Number of ranks       =         128
QETSC: Number of slices      =          64
QETSC: Number of ranks/slice =           2
QETSC: Number of evals/slice =   8.00
QETSC: Number of req. evals  =         512
QETSC: Number of rows (all)  =        2944
QETSC: Number of rows (max)  =          23
QETSC: Number of rows (min)  =          23
QETSC: Number of nonzeros    =      808032
QETSC: Nonzero % (all)       =   9.32
QETSC: Nonzero % (max)       =  10.69
QETSC: Nonzero % (min)       =   7.68
QETSC: Density option        =           0
QETSC: Bin type given        =           7
QETSC: Bin buffer given      =   0.10
QETSC: Diff thresh           =   0.02
QETSC: Infinity type         =           2
QETSC: Inertia type          =           1
 QETSC: Shifts, inertias         =
      -INF     0
    -2.300     0
    -2.263    54
    -2.227   128
    -2.190   128
    -2.154   128
    -2.117   128
    -2.081   128
    -2.044   128
    -2.008   128
    -1.971   128
    -1.935   128
    -1.898   128
    -1.862   128
    -1.825   128
    -1.789   128
    -1.752   128
    -1.716   128
    -1.679   128
    -1.643   128
    -1.606   128
    -1.570   128
    -1.533   128
    -1.497   128
    -1.460   128
    -1.424   128
    -1.387   128
    -1.351   128
    -1.314   166
    -1.278   247
    -1.241   256
    -1.205   256
    -1.168   260
    -1.132   302
    -1.095   354
    -1.059   384
    -1.022   384
    -0.986   417
    -0.949   512
    -0.913   512
    -0.876   512
    -0.840   512
    -0.803   512
    -0.767   512
    -0.730   512
    -0.694   512
    -0.657   512
    -0.621   512
    -0.584   512
    -0.548   512
    -0.511   512
    -0.475   512
    -0.438   512
    -0.402   512
    -0.365   512
    -0.329   512
    -0.292   512
    -0.256   512
    -0.219   512
    -0.183   512
    -0.146   512
    -0.110   512
    -0.073   512
    -0.037   512
     0.000   512
 QETSc: Custers,iter,crange,npcmax,trial 1 0.587576148632147112E-02 16 20
-2.2945914168136388E+00
-2.2885067607289828E+00
-2.2824221046443269E+00
-2.2763374485596706E+00
-2.2702527924750147E+00
-2.2641681363903587E+00
-2.2580652080652079E+00
-2.2521450021450020E+00
-2.2462247962247961E+00
-2.2403045903045902E+00
-2.2343843843843842E+00
-2.2284641784641783E+00
-2.2274774774774770E+00
-1.3450292397660817E+00
-1.3383040935672514E+00
-1.3315789473684210E+00
-1.3248538011695905E+00
-1.3181286549707603E+00
-1.3115814226925337E+00
-1.3052714089751127E+00
-1.2989613952576915E+00
-1.2926513815402703E+00
-1.2863413678228492E+00
-1.2800313541054280E+00
-1.2737213403880070E+00
-1.2656084656084656E+00
-1.2574955908289240E+00
-1.2493827160493827E+00
-1.2453262786596120E+00
-1.2047619047619047E+00
-1.1956349206349206E+00
-1.1865079365079365E+00
-1.1773809523809524E+00
-1.1630385487528345E+00
-1.1569538926681784E+00
-1.1508692365835222E+00
-1.1447845804988661E+00
-1.1386999244142102E+00
-1.1326152683295541E+00
-1.1261294261294261E+00
-1.1198107448107448E+00
-1.1134920634920635E+00
-1.1071733821733820E+00
-1.1008547008547007E+00
-1.0952380952380951E+00
-1.0891534391534390E+00
-1.0830687830687831E+00
-1.0769841269841269E+00
-1.0708994708994708E+00
-1.0648148148148149E+00
-1.0599470899470900E+00
-1.0166907166907166E+00
-1.0100529100529101E+00
-1.0034151034151033E+00
-9.9677729677729676E-01
-9.9013949013949021E-01
-9.8340852130325818E-01
-9.7725981620718461E-01
-9.7111111111111115E-01
-9.6496240601503758E-01
-9.5881370091896401E-01
-9.5266499582289055E-01
-9.4997493734335836E-01
 QETSC: Bins             =
                   -INF
-2.2999999999999998E+00
-2.2933744855967078E+00
-2.2872898295120518E+00
-2.2812051734273955E+00
-2.2751205173427396E+00
-2.2690358612580837E+00
-2.2629475507253285E+00
-2.2568811668811666E+00
-2.2509609609609607E+00
-2.2450407550407547E+00
-2.2391205491205488E+00
-2.2332003432003429E+00
-2.2282668382668382E+00
-2.0509878299351980E+00
-1.3436842105263156E+00
-1.3369590643274853E+00
-1.3302339181286549E+00
-1.3235087719298244E+00
-1.3168192085151149E+00
-1.3103194199490495E+00
-1.3040094062316285E+00
-1.2976993925142073E+00
-1.2913893787967861E+00
-1.2850793650793650E+00
-1.2787693513619438E+00
-1.2720987654320988E+00
-1.2639858906525574E+00
-1.2558730158730158E+00
-1.2485714285714284E+00
-1.2372134038800706E+00
-1.2029365079365080E+00
-1.1938095238095239E+00
-1.1846825396825398E+00
-1.1745124716553288E+00
-1.1618216175359033E+00
-1.1557369614512472E+00
-1.1496523053665910E+00
-1.1435676492819349E+00
-1.1374829931972790E+00
-1.1313180998895285E+00
-1.1248656898656899E+00
-1.1185470085470086E+00
-1.1122283272283273E+00
-1.1059096459096458E+00
-1.0997313797313797E+00
-1.0940211640211639E+00
-1.0879365079365078E+00
-1.0818518518518518E+00
-1.0757671957671957E+00
-1.0696825396825396E+00
-1.0638412698412698E+00
-1.0512958152958154E+00
-1.0153631553631552E+00
-1.0087253487253487E+00
-1.0020875420875419E+00
-9.9544973544973547E-01
-9.8879329637224378E-01
-9.8217878028404348E-01
-9.7603007518796991E-01
-9.6988137009189646E-01
-9.6373266499582289E-01
-9.5758395989974932E-01
-9.5212698412698415E-01
-9.4920634920634916E-01
QETSC: Started iter            1
QETSC: Bin type used         =           7
QETSC: Buffer used           =   0.0000000000000000E+00
QETSC: EPS interval          =      -INF,    -0.949
QETSC: Inertia type          =           1
SLEPc: EPSSolve time = 28 2.336e-06
SLEPc: EPSSolve time = 51 1.557e-06
SLEPc: EPSSolve time = 12 3.820e-06
SLEPc: EPSSolve time = 32 3.525e-06
SLEPc: EPSSolve time = 0 4.101e-06
SLEPc: EPSSolve time = 63 3.926e-06
SLEPc: EPSSolve time = 30 2.300e-06
SLEPc: EPSSolve time = 52 2.165e-06
SLEPc: EPSSolve time = 13 3.603e-06
SLEPc: EPSSolve time = 29 2.535e-06
SLEPc: EPSSolve time = 54 2.197e-06
SLEPc: EPSSolve time = 27 2.334e-06
SLEPc: EPSSolve time = 53 2.196e-06
SLEPc: EPSSolve time = 31 1.686e-06
SLEPc: EPSSolve time = 26 5.456e+00
SLEPc: EPSSolve time = 50 5.472e+00
SLEPc: EPSSolve time = 1 5.575e+00
SLEPc: EPSSolve time = 44 5.592e+00
SLEPc: EPSSolve time = 14 5.599e+00
SLEPc: EPSSolve time = 15 5.606e+00
SLEPc: EPSSolve time = 62 5.645e+00
SLEPc: EPSSolve time = 33 5.674e+00
SLEPc: EPSSolve time = 49 5.734e+00
SLEPc: EPSSolve time = 2 5.753e+00
SLEPc: EPSSolve time = 48 5.755e+00
SLEPc: EPSSolve time = 55 5.769e+00
SLEPc: EPSSolve time = 35 5.813e+00
SLEPc: EPSSolve time = 38 5.821e+00
SLEPc: EPSSolve time = 45 5.857e+00
SLEPc: EPSSolve time = 36 5.868e+00
SLEPc: EPSSolve time = 25 5.889e+00
SLEPc: EPSSolve time = 24 5.897e+00
SLEPc: EPSSolve time = 39 5.898e+00
SLEPc: EPSSolve time = 42 5.904e+00
SLEPc: EPSSolve time = 40 5.914e+00
SLEPc: EPSSolve time = 43 5.923e+00
SLEPc: EPSSolve time = 41 5.948e+00
SLEPc: EPSSolve time = 34 5.960e+00
SLEPc: EPSSolve time = 37 5.963e+00
SLEPc: EPSSolve time = 46 5.965e+00
SLEPc: EPSSolve time = 17 5.987e+00
SLEPc: EPSSolve time = 47 6.023e+00
SLEPc: EPSSolve time = 3 6.035e+00
SLEPc: EPSSolve time = 16 6.082e+00
SLEPc: EPSSolve time = 11 6.120e+00
SLEPc: EPSSolve time = 22 6.129e+00
SLEPc: EPSSolve time = 4 6.162e+00
SLEPc: EPSSolve time = 18 6.192e+00
SLEPc: EPSSolve time = 8 6.201e+00
SLEPc: EPSSolve time = 5 6.234e+00
SLEPc: EPSSolve time = 6 6.243e+00
SLEPc: EPSSolve time = 19 6.244e+00
SLEPc: EPSSolve time = 61 6.271e+00
SLEPc: EPSSolve time = 20 6.302e+00
SLEPc: EPSSolve time = 9 6.356e+00
SLEPc: EPSSolve time = 21 6.384e+00
SLEPc: EPSSolve time = 7 6.390e+00
SLEPc: EPSSolve time = 10 6.416e+00
SLEPc: EPSSolve time = 23 6.535e+00
SLEPc: EPSSolve time = 60 6.709e+00
SLEPc: EPSSolve time = 56 8.022e+00
SLEPc: EPSSolve time = 59 8.474e+00
SLEPc: EPSSolve time = 58 9.432e+00
SLEPc: EPSSolve time = 57 9.536e+00
 QETSC: Eigenvalues         =
-2.2942690628581643E+00
-2.2915884994216942E+00
-2.2896858110285816E+00
-2.2887702009403337E+00
-2.2871893855683294E+00
-2.2864442651962436E+00
-2.2861183249658019E+00
-2.2846526193598460E+00
-2.2842757447009436E+00
-2.2838849403153714E+00
-2.2832597376925041E+00
-2.2826202848733526E+00
-2.2817977344205036E+00
-2.2807723115576155E+00
-2.2799192958388517E+00
-2.2796736362043166E+00
-2.2794625646533979E+00
-2.2790387687023119E+00
-2.2787413898837841E+00
-2.2783042952985624E+00
-2.2777764625635619E+00
-2.2770836314175473E+00
-2.2762865963685006E+00
-2.2762324003593339E+00
-2.2753415859596351E+00
-2.2749900340988036E+00
-2.2743175385671588E+00
-2.2738690925699681E+00
-2.2736510144693427E+00
-2.2731601396778656E+00
-2.2722736355734838E+00
-2.2718626563783739E+00
-2.2716372485707597E+00
-2.2710654791677292E+00
-2.2707219991903544E+00
-2.2705307103435328E+00
-2.2702128741747534E+00
-2.2697960991554038E+00
-2.2694817321788636E+00
-2.2692816488944270E+00
-2.2688425602110218E+00
-2.2680687756515892E+00
-2.2679429933377722E+00
-2.2676212969875049E+00
-2.2672988907711797E+00
-2.2669586985697232E+00
-2.2668328576681631E+00
-2.2664664309728035E+00
-2.2656407982522060E+00
-2.2653840999840273E+00
-2.2649376208451142E+00
-2.2647348708304720E+00
-2.2644244984389958E+00
-2.2635433553230788E+00
-2.2628490004930755E+00
-2.2624087521833292E+00
-2.2623506366917070E+00
-2.2617181215804529E+00
-2.2612513005171859E+00
-2.2609308311998260E+00
-2.2604805977944320E+00
-2.2600941457329107E+00
-2.2597923696226023E+00
-2.2594101258063568E+00
-2.2591144678915849E+00
-2.2588591469354551E+00
-2.2583724585643230E+00
-2.2580516869622391E+00
-2.2580424795069947E+00
-2.2573448842310539E+00
-2.2569543881446155E+00
-2.2564376889813889E+00
-2.2559933633951199E+00
-2.2558656814599214E+00
-2.2553007672815975E+00
-2.2550969554612856E+00
-2.2547972045674816E+00
-2.2546543720997416E+00
-2.2542411457914322E+00
-2.2539680889007649E+00
-2.2535887348866326E+00
-2.2534487633497648E+00
-2.2526824243218346E+00
-2.2524086470276283E+00
-2.2520019439714876E+00
-2.2513253251960501E+00
-2.2508525752879867E+00
-2.2506949894694905E+00
-2.2503018746960679E+00
-2.2497046828205409E+00
-2.2492648373470430E+00
-2.2491269551953730E+00
-2.2488743932046766E+00
-2.2483663850273086E+00
-2.2480622530948624E+00
-2.2477776116546493E+00
-2.2474912365676256E+00
-2.2472005157386818E+00
-2.2464806025749597E+00
-2.2458533768716458E+00
-2.2455471228788260E+00
-2.2453992139843963E+00
-2.2450032156242812E+00
-2.2448901664043510E+00
-2.2446090978846907E+00
-2.2442362860927081E+00
-2.2438517150039696E+00
-2.2433067158884028E+00
-2.2432047274368614E+00
-2.2428937088301857E+00
-2.2418899504623235E+00
-2.2414957006598653E+00
-2.2413577556944180E+00
-2.2408570790729425E+00
-2.2400244344608158E+00
-2.2399512944146278E+00
-2.2396231875987174E+00
-2.2391501246594037E+00
-2.2389536954495521E+00
-2.2388145908805170E+00
-2.2381296113895481E+00
-2.2375063830523843E+00
-2.2367386846868391E+00
-2.2364835818605782E+00
-2.2362797727998411E+00
-2.2356807818379063E+00
-2.2352029993864844E+00
-2.2340754124407649E+00
-1.3450505335226499E+00
-1.3381209246633070E+00
-1.3370903547836865E+00
-1.3360518880024725E+00
-1.3350334222278901E+00
-1.3338060640958200E+00
-1.3328997541346197E+00
-1.3319546925452803E+00
-1.3315511895013428E+00
-1.3310438176407773E+00
-1.3304846795488954E+00
-1.3294713142910444E+00
-1.3282467512102432E+00
-1.3266832116167815E+00
-1.3260468933902492E+00
-1.3256506200546991E+00
-1.3251920441296350E+00
-1.3247084077709070E+00
-1.3237405619322675E+00
-1.3232518508933673E+00
-1.3228810768706050E+00
-1.3220476689082734E+00
-1.3212147554786520E+00
-1.3207609129391864E+00
-1.3203078833749160E+00
-1.3199379835451732E+00
-1.3188596511595827E+00
-1.3187028376627370E+00
-1.3182790808711480E+00
-1.3180429069324811E+00
-1.3175154088694108E+00
-1.3173043428204658E+00
-1.3166322419837622E+00
-1.3164656015844840E+00
-1.3158598348646429E+00
-1.3152601846523904E+00
-1.3150780778937643E+00
-1.3144554512492799E+00
-1.3139919958791404E+00
-1.3139353664075604E+00
-1.3127493790714093E+00
-1.3121169680597375E+00
-1.3116942979710724E+00
-1.3111849903568611E+00
-1.3110280061346786E+00
-1.3106940727942265E+00
-1.3100514232746381E+00
-1.3096411272105404E+00
-1.3094479442730858E+00
-1.3088886777847075E+00
-1.3083800370368195E+00
-1.3075938614968237E+00
-1.3070920151012659E+00
-1.3066818437381866E+00
-1.3063854684421055E+00
-1.3060752949041861E+00
-1.3057625173019927E+00
-1.3053728047256927E+00
-1.3049288459337784E+00
-1.3046561464803572E+00
-1.3042130565403465E+00
-1.3037407642877799E+00
-1.3035691115942598E+00
-1.3031892932182798E+00
-1.3025750321560765E+00
-1.3022453876933970E+00
-1.3018798362270985E+00
-1.3016915578298620E+00
-1.3013637264944879E+00
-1.3006709358341304E+00
-1.3003880762174096E+00
-1.3001037291749138E+00
-1.2997070819472218E+00
-1.2993927770468403E+00
-1.2992060368967939E+00
-1.2982829311828183E+00
-1.2979832791193546E+00
-1.2977602033991464E+00
-1.2969398551548352E+00
-1.2964137894023207E+00
-1.2962394265286170E+00
-1.2957595940511655E+00
-1.2952468633043592E+00
-1.2949768662438303E+00
-1.2946349511009596E+00
-1.2940441335543202E+00
-1.2936347013269174E+00
-1.2929992470000820E+00
-1.2920852434482311E+00
-1.2918548634989591E+00
-1.2913881751297147E+00
-1.2909994718850570E+00
-1.2908774403005772E+00
-1.2902682431014949E+00
-1.2891482198809856E+00
-1.2888647408030507E+00
-1.2887310304517721E+00
-1.2881288324929046E+00
-1.2880577514019897E+00
-1.2875425990727376E+00
-1.2873119438777194E+00
-1.2869349338843186E+00
-1.2867902454403497E+00
-1.2865547820082204E+00
-1.2857729645199500E+00
-1.2856188472840040E+00
-1.2851178957358176E+00
-1.2848348190046719E+00
-1.2839115757136332E+00
-1.2835454684698893E+00
-1.2833280494735895E+00
-1.2826621438971679E+00
-1.2824147972135891E+00
-1.2816399411388153E+00
-1.2803896803089849E+00
-1.2800921776228402E+00
-1.2795124726291418E+00
-1.2787647700141775E+00
-1.2782907389652904E+00
-1.2774153946482720E+00
-1.2767004799593560E+00
-1.2754305415791982E+00
-1.2748468938931792E+00
-1.2734903064618930E+00
-1.2733844790737336E+00
-1.2722721316023942E+00
-1.2712019575783942E+00
-1.2644938901098519E+00
-1.1784272869549228E+00
-1.1776383245095234E+00
-1.1740926806653662E+00
-1.1698048211617520E+00
-1.1672458934899803E+00
-1.1653847234684280E+00
-1.1641847839711379E+00
-1.1633340971434909E+00
-1.1629666760519477E+00
-1.1613445801332536E+00
-1.1600331059754017E+00
-1.1580179666722332E+00
-1.1574016339007178E+00
-1.1563388662491703E+00
-1.1555693205293265E+00
-1.1552852737849861E+00
-1.1537522761729173E+00
-1.1534764755035301E+00
-1.1528598222411361E+00
-1.1516568741354960E+00
-1.1512703030790119E+00
-1.1494768408725753E+00
-1.1491088700388759E+00
-1.1482881212870644E+00
-1.1480247057249531E+00
-1.1468993465594739E+00
-1.1456484785112435E+00
-1.1454536984774109E+00
-1.1447770575952751E+00
-1.1438270730910007E+00
-1.1425061359296784E+00
-1.1417976047214333E+00
-1.1415431409988561E+00
-1.1407133896082551E+00
-1.1398027665834696E+00
-1.1387948918303705E+00
-1.1384787682955144E+00
-1.1379583010764935E+00
-1.1371129387579861E+00
-1.1361588626618329E+00
-1.1357314647054000E+00
-1.1348572099419258E+00
-1.1345399167232697E+00
-1.1332125113982310E+00
-1.1327929886648338E+00
-1.1318497997709580E+00
-1.1302155198534583E+00
-1.1301689638552657E+00
-1.1289620692808251E+00
-1.1286611291805000E+00
-1.1274305231654203E+00
-1.1265893454450766E+00
-1.1260793904912754E+00
-1.1257179424588786E+00
-1.1250174028749549E+00
-1.1244069201155542E+00
-1.1232372158726680E+00
-1.1218902469425698E+00
-1.1214113806925601E+00
-1.1212947308553598E+00
-1.1202118833597468E+00
-1.1200313229924068E+00
-1.1196359748230966E+00
-1.1189973025562203E+00
-1.1181660783302330E+00
-1.1176159049677954E+00
-1.1170048611135361E+00
-1.1161809155452347E+00
-1.1146373907436204E+00
-1.1144111515026554E+00
-1.1140277445459279E+00
-1.1132452651050477E+00
-1.1121003170969130E+00
-1.1111048544957889E+00
-1.1106267222044004E+00
-1.1098070607260155E+00
-1.1097158141993566E+00
-1.1091794626350751E+00
-1.1078059701545240E+00
-1.1074195999386522E+00
-1.1072329891258381E+00
-1.1062618352113109E+00
-1.1055505725683599E+00
-1.1047230116440339E+00
-1.1034231988937131E+00
-1.1025304616352765E+00
-1.1020260424171624E+00
-1.1015976587626435E+00
-1.1007940866876307E+00
-1.0995097035908417E+00
-1.0991835859242378E+00
-1.0985879425466545E+00
-1.0981983685435908E+00
-1.0977810836406310E+00
-1.0974087430165780E+00
-1.0962453812202717E+00
-1.0957468835687287E+00
-1.0952458655074992E+00
-1.0943235071564226E+00
-1.0941059170431349E+00
-1.0935136387894671E+00
-1.0925585575532262E+00
-1.0917752813613857E+00
-1.0912360709329905E+00
-1.0906489878096652E+00
-1.0894866171964706E+00
-1.0885483069395636E+00
-1.0879472073113166E+00
-1.0876067328216792E+00
-1.0861417860089575E+00
-1.0857405573882219E+00
-1.0847778790059635E+00
-1.0841163720768754E+00
-1.0836849793107484E+00
-1.0827063994088799E+00
-1.0822887166209807E+00
-1.0812574180679024E+00
-1.0805119165141188E+00
-1.0787735010717678E+00
-1.0785606974411051E+00
-1.0778306568645053E+00
-1.0756641068126447E+00
-1.0753383127048444E+00
-1.0743863805314775E+00
-1.0723485759763818E+00
-1.0716097469671622E+00
-1.0702154541833016E+00
-1.0674710429940033E+00
-1.0014987829968003E+00
-9.9698070433330421E-01
-9.9593930943638798E-01
-9.9563810528446650E-01
-9.9549740503740913E-01
-9.9492121220411023E-01
-9.9456594621643946E-01
-9.9384977538225039E-01
-9.9371612840044510E-01
-9.9307113621170662E-01
-9.9274396623830830E-01
-9.9188872118006299E-01
-9.9148102145569583E-01
-9.9131078395582184E-01
-9.9119701700186169E-01
-9.9084986275857845E-01
-9.9063126996612028E-01
-9.9040824396313287E-01
-9.8954799750229561E-01
-9.8938495407099025E-01
-9.8918529576447467E-01
-9.8889927176401782E-01
-9.8869136215580811E-01
-9.8851111983038686E-01
-9.8814240440892975E-01
-9.8748111052832022E-01
-9.8736243647420374E-01
-9.8690438945059711E-01
-9.8679187518693079E-01
-9.8661093528032928E-01
-9.8640806834612438E-01
-9.8610786923796634E-01
-9.8581315999546770E-01
-9.8568632169439963E-01
-9.8505007715771631E-01
-9.8484523321122786E-01
-9.8473350540961035E-01
-9.8456098065390385E-01
-9.8413094914849575E-01
-9.8405769207820004E-01
-9.8378674586163484E-01
-9.8329672596425355E-01
-9.8309463160978239E-01
-9.8287039335728310E-01
-9.8251811441446513E-01
-9.8221653202282344E-01
-9.8192534392688902E-01
-9.8166375999685962E-01
-9.8142985968730945E-01
-9.8125829758512817E-01
-9.8086870579056196E-01
-9.8058224349113776E-01
-9.8021545657867359E-01
-9.8009136182470058E-01
-9.7975448089552253E-01
-9.7964447878273175E-01
-9.7944546442772817E-01
-9.7937015026840191E-01
-9.7923459432821403E-01
-9.7900834974638939E-01
-9.7881916776915223E-01
-9.7878957598054184E-01
-9.7841218981588640E-01
-9.7831233129587014E-01
-9.7775248268454051E-01
-9.7770841346243642E-01
-9.7749529767778021E-01
-9.7729131641566946E-01
-9.7689177650888448E-01
-9.7675780595031458E-01
-9.7642571515172838E-01
-9.7618113222168157E-01
-9.7601429259067241E-01
-9.7583413392285012E-01
-9.7571706854694151E-01
-9.7526173613521150E-01
-9.7513360069748067E-01
-9.7468181928853692E-01
-9.7452268099837602E-01
-9.7434078460634788E-01
-9.7402640129373430E-01
-9.7377708075108071E-01
-9.7364979904066473E-01
-9.7340386033277260E-01
-9.7309993977074805E-01
-9.7281290373751717E-01
-9.7256170635248596E-01
-9.7230522163541178E-01
-9.7188994630040437E-01
-9.7159026550932093E-01
-9.7142060392885066E-01
-9.7101359907716522E-01
-9.7069734859338619E-01
-9.7063523487938452E-01
-9.7049632109136952E-01
-9.7016040254762193E-01
-9.6995239438625092E-01
-9.6964158235185860E-01
-9.6940602660933339E-01
-9.6887427227920775E-01
-9.6858910093293837E-01
-9.6854869727488624E-01
-9.6811394897073999E-01
-9.6771494972082961E-01
-9.6750531361940151E-01
-9.6732721792636955E-01
-9.6702157790961174E-01
-9.6692503860433232E-01
-9.6633351329084960E-01
-9.6619091981997340E-01
-9.6603080955246612E-01
-9.6567596547507273E-01
-9.6556349041604550E-01
-9.6554843064130824E-01
-9.6477412409792751E-01
-9.6399245508776443E-01
-9.6361632463584024E-01
-9.6334023884483833E-01
-9.6239426431150299E-01
-9.6202739810274918E-01
-9.6171025066074944E-01
-9.6160819316098056E-01
-9.6096517027150041E-01
-9.6071538112038801E-01
-9.6040063508262796E-01
-9.6006291333214733E-01
-9.5888179154990072E-01
-9.5630094115912201E-01
QETSC: Iter time (min)       =     1  18.02
QETSC: Iter time (max)       =     1  18.03
QETSC: Iter time (avg)       =     1  18.03
QETSC: Bin scores            =     1   0.71   0.50
QETSC: Empty bins            =     1          15
QETSC: Max,min eigs          =     1          26           1
QETSC: Max,min dists         =     1 7.059E-01 1.204E-06
QETSC: Bad bins              =     1          15          15
QETSC: Max neigs bin         =     1          59
QETSC: Max,min dist bins     =     1          15          24
QETSC: Num. of conv. evals   =     1         512
QETSC: Eigenvalue (1)        =     1  -2.2942690628581643E+00
QETSC: Eigenvalue (nocc)     =     1  -9.5630094115912201E-01
QETSC: Max differrence       =     1   2.2942690628581643E+00
QETSC: Safe iteration        =     1      F
QETSC: Finished iter         =           1
 *****************************************************************

siesta: Program's energy decomposition (eV):
siesta: Ebs     =    -19717.145141
siesta: Eions   =    104429.373288
siesta: Ena     =     25111.247127
siesta: Ekin    =     39771.655038
siesta: Enl     =     -5671.889728
siesta: DEna    =         0.000020
siesta: DUscf   =         0.000000
siesta: DUext   =         0.000000
siesta: Exc     =    -14272.759880
siesta: eta*DQ  =         0.000000
siesta: Emadel  =         0.000000
siesta: Emeta   =         0.000000
siesta: Emolmec =         0.000000
siesta: Ekinion =         0.000000
siesta: Eharris =    -60791.143089
siesta: Etot    =    -59491.120711
siesta: FreeEng =    -59491.120711
timer: Routine,Calls,Time,% =    IterSCF     1      20.170  51.22
 QETSC: Shifts, inertias         =
      -INF     0
    -2.300     0
    -2.263     0
[...]
Time (sec):           2.161e+02      1.00000   2.161e+02
Objects:              3.325e+03      1.07293   3.314e+03
Flops:                4.750e+09   3607.74436   3.099e+09  3.966e+11
Flops/sec:            2.198e+07   3607.74429   1.434e+07  1.836e+09
MPI Messages:         2.223e+04      1.95318   1.884e+04  2.411e+06
MPI Message Lengths:  1.109e+08      2.79151   4.441e+03  1.071e+10
MPI Reductions:       1.626e+04      1.29184

Flop counting convention: 1 flop = 1 real number operation of type (multiply/divide/add/subtract)
                            e.g., VecAXPY() for real vectors of length N --> 2N flops
                            and VecAXPY() for complex vectors of length N --> 8N flops

Summary of Stages:   ----- Time ------  ----- Flops -----  --- Messages ---  -- Message Lengths --  -- Reductions --
                        Avg     %Total     Avg     %Total   counts   %Total     Avg         %Total   counts   %Total 
 0:      Main Stage: 2.0240e-04   0.0%  0.0000e+00   0.0%  0.000e+00   0.0%  0.000e+00        0.0%  0.000e+00   0.0% 
 1:     siesta_init: 4.1681e+00   1.9%  0.0000e+00   0.0%  0.000e+00   0.0%  0.000e+00        0.0%  0.000e+00   0.0% 
 2:   siesta_forces: 1.6271e+01   7.5%  0.0000e+00   0.0%  0.000e+00   0.0%  0.000e+00        0.0%  0.000e+00   0.0% 
 3:    siesta_solve: 7.7398e-03   0.0%  0.0000e+00   0.0%  0.000e+00   0.0%  0.000e+00        0.0%  0.000e+00   0.0% 
 4:    siesta2qetsc: 1.2355e-01   0.1%  0.0000e+00   0.0%  2.546e+04   1.1%  4.526e-01        0.0%  6.900e+01   0.5% 
 5: qetsc_setup_eps: 2.6099e+01  12.1%  3.1141e+08   0.1%  5.755e+05  23.9%  1.814e+03       40.8%  3.580e+02   2.8% 
 6: qetsc_solve_eps: 1.3727e+02  63.5%  3.9632e+11  99.9%  5.406e+05  22.4%  2.550e+03       57.4%  3.747e+03  29.7% 
 7:   qetsc_eigvals: 2.4105e-02   0.0%  0.0000e+00   0.0%  0.000e+00   0.0%  0.000e+00        0.0%  0.000e+00   0.0% 
 8:   qetsc_density: 1.2982e+01   6.0%  0.0000e+00   0.0%  1.270e+06  52.7%  7.702e+01        1.7%  1.168e+04  92.7% 
10:     siesta_misc: 1.7094e+01   7.9%  0.0000e+00   0.0%  0.000e+00   0.0%  0.000e+00        0.0%  0.000e+00   0.0% 
11:     qetsc_clean: 9.7836e-03   0.0%  0.0000e+00   0.0%  0.000e+00   0.0%  0.000e+00        0.0%  0.000e+00   0.0% 
12:     siesta_move: 7.4182e-05   0.0%  0.0000e+00   0.0%  0.000e+00   0.0%  0.000e+00        0.0%  0.000e+00   0.0% 
13: siesta_analysis: 1.6900e-02   0.0%  0.0000e+00   0.0%  0.000e+00   0.0%  0.000e+00        0.0%  0.000e+00   0.0% 
14:      siesta_end: 1.9828e+00   0.9%  0.0000e+00   0.0%  0.000e+00   0.0%  0.000e+00        0.0%  0.000e+00   0.0% 

------------------------------------------------------------------------------------------------------------------------
See the 'Profiling' chapter of the users' manual for details on interpreting output.
Phase summary info:
   Count: number of times phase was executed
   Time and Flops: Max - maximum over all processors
                   Ratio - ratio of maximum to minimum over all processors
   Mess: number of messages sent
   Avg. len: average message length (bytes)
   Reduct: number of global reductions
   Global: entire computation
   Stage: stages of a computation. Set stages with PetscLogStagePush() and PetscLogStagePop().
      %T - percent time in this phase         %F - percent flops in this phase
      %M - percent messages in this phase     %L - percent message lengths in this phase
      %R - percent reductions in this phase
   Total Mflop/s: 10e-6 * (sum of flops over all processors)/(max time over all processors)
------------------------------------------------------------------------------------------------------------------------
Event                Count      Time (sec)     Flops                             --- Global ---  --- Stage ---   Total
                   Max Ratio  Max     Ratio   Max  Ratio  Mess   Avg len Reduct  %T %F %M %L %R  %T %F %M %L %R Mflop/s
------------------------------------------------------------------------------------------------------------------------

--- Event Stage 0: Main Stage


--- Event Stage 1: siesta_init


--- Event Stage 2: siesta_forces


--- Event Stage 3: siesta_solve


--- Event Stage 4: siesta2qetsc

MatConvert             2 1.0 1.3275e-03 1.1 0.00e+00 0.0 0.0e+00 0.0e+00 0.0e+00  0  0  0  0  0   1  0  0  0  0     0
MatAssemblyBegin      14 1.0 9.3743e-0217.2 0.00e+00 0.0 0.0e+00 0.0e+00 5.6e+01  0  0  0  0  0  48  0  0  0 81     0
MatAssemblyEnd        14 1.0 5.6557e-03 1.0 0.00e+00 0.0 2.5e+04 4.3e+01 1.1e+01  0  0  1  0  0   5  0100100 16     0
VecSet                 3 1.0 1.4394e-05 2.0 0.00e+00 0.0 0.0e+00 0.0e+00 0.0e+00  0  0  0  0  0   0  0  0  0  0     0

--- Event Stage 5: qetsc_setup_eps

MatCholFctrSym         1 1.0 6.2828e-01 1.0 0.00e+00 0.0 0.0e+00 0.0e+00 5.0e+00  0  0  0  0  0   2  0  0  0  1     0
MatCholFctrNum         6 1.0 1.7103e+01 1.1 0.00e+00 0.0 0.0e+00 0.0e+00 0.0e+00  7  0  0  0  0  61  0  0  0  0     0
MatCopy                5 1.0 9.5887e-01 1.0 0.00e+00 0.0 0.0e+00 0.0e+00 3.0e+01  0  0  0  0  0   4  0  0  0  8     0
MatConvert             1 1.0 1.1093e-02 3.3 0.00e+00 0.0 0.0e+00 0.0e+00 0.0e+00  0  0  0  0  0   0  0  0  0  0     0
MatScale              24 1.0 6.6664e-03 6.8 3.55e+06 2.7 0.0e+00 0.0e+00 0.0e+00  0  0  0  0  0   0100  0  0  0 46714
MatAssemblyBegin      39 1.0 3.4795e+00861.8 0.00e+00 0.0 0.0e+00 0.0e+00 1.0e+02  1  0  0  0  1   7  0  0  0 28     0
MatAssemblyEnd        39 1.0 1.6920e-01 1.2 0.00e+00 0.0 5.8e+03 4.1e+03 1.0e+02  0  0  0  0  1   1  0  1  1 28     0
MatGetRow          25024 1.0 7.9727e-01 2.9 0.00e+00 0.0 0.0e+00 0.0e+00 0.0e+00  0  0  0  0  0   2  0  0  0  0     0
MatGetSubMatrice      14 1.0 1.0095e+00 2.7 0.00e+00 0.0 5.7e+05 7.6e+03 2.8e+01  0  0 24 41  0   3  0 99 99  8     0
MatZeroEntries         5 1.0 4.4024e-03 2.1 0.00e+00 0.0 0.0e+00 0.0e+00 0.0e+00  0  0  0  0  0   0  0  0  0  0     0
MatAXPY               18 1.0 1.9380e+00 1.0 0.00e+00 0.0 3.8e+03 4.1e+03 9.6e+01  1  0  0  0  1   7  0  1  0 27     0
MatRedundantMat       14 1.0 3.2316e+00 1.1 0.00e+00 0.0 5.7e+05 7.6e+03 1.3e+02  1  0 24 41  1  12  0 99100 36     0
MatMPIConcateSeq      14 1.0 2.5028e+00 1.2 0.00e+00 0.0 1.9e+03 4.1e+03 1.0e+02  1  0  0  0  1   9  0  0  0 28     0
VecSet                11 1.0 5.5533e-05 2.1 0.00e+00 0.0 0.0e+00 0.0e+00 0.0e+00  0  0  0  0  0   0  0  0  0  0     0
EPSSetUp               6 1.0 2.3524e+01 1.0 0.00e+00 0.0 8.7e+04 7.4e+03 2.7e+02 11  0  4  6  2  90  0 15 15 75     0
STSetUp               12 1.0 2.0626e+01 1.1 0.00e+00 0.0 3.8e+03 4.1e+03 1.4e+02  9  0  0  0  1  75  0  1  0 38     0
KSPSetUp               6 1.0 1.2969e-05 1.8 0.00e+00 0.0 0.0e+00 0.0e+00 0.0e+00  0  0  0  0  0   0  0  0  0  0     0
PCSetUp                6 1.0 1.7738e+01 1.1 0.00e+00 0.0 0.0e+00 0.0e+00 5.0e+00  8  0  0  0  0  63  0  0  0  1     0

--- Event Stage 6: qetsc_solve_eps

MatMult             3405 0.0 2.3246e+01 0.0 4.01e+09 0.0 3.9e+05 1.2e+04 0.0e+00  8 78 16 42  0  12 78 71 74  0 13375
MatSolve            1282 0.0 6.3617e+01 0.0 0.00e+00 0.0 1.5e+05 1.1e+04 1.1e+03 25  0  6 15  9  39  0 27 26 30     0
MatCholFctrNum        13 1.1 3.8609e+01 1.2 0.00e+00 0.0 0.0e+00 0.0e+00 0.0e+00 16  0  0  0  0  25  0  0  0  0     0
MatCopy               13 1.1 2.4943e+00 1.1 0.00e+00 0.0 0.0e+00 0.0e+00 7.8e+01  1  0  0  0  1   2  0  0  0  2     0
MatAssemblyBegin      26 1.1 4.2496e+001003.4 0.00e+00 0.0 0.0e+00 0.0e+00 1.0e+02  1  0  0  0  1   2  0  0  0  3     0
MatAssemblyEnd        26 1.1 1.7720e-01 1.1 0.00e+00 0.0 8.3e+03 4.1e+03 1.6e+02  0  0  0  0  1   0  0  2  1  4     0
MatGetRow          57408 1.1 1.8274e+00 3.2 0.00e+00 0.0 0.0e+00 0.0e+00 0.0e+00  1  0  0  0  0   1  0  0  0  0     0
MatZeroEntries        13 1.1 1.3590e-02 2.2 0.00e+00 0.0 0.0e+00 0.0e+00 0.0e+00  0  0  0  0  0   0  0  0  0  0     0
MatAXPY               13 1.1 4.1535e+00 1.1 0.00e+00 0.0 8.3e+03 4.1e+03 2.1e+02  2  0  0  0  2   3  0  2  1  6     0
VecDot               188 0.0 4.5645e-01 0.0 5.53e+05 0.0 0.0e+00 0.0e+00 1.0e+02  0  0  0  0  1   0  0  0  0  3    86
VecCopy               15 0.0 7.8896e-05 0.0 0.00e+00 0.0 0.0e+00 0.0e+00 0.0e+00  0  0  0  0  0   0  0  0  0  0     0
VecSet             11510959.2 4.5715e-021066.4 0.00e+00 0.0 0.0e+00 0.0e+00 0.0e+00  0  0  0  0  0   0  0  0  0  0     0
VecScatterBegin     5969 0.0 3.3819e+00 0.0 0.00e+00 0.0 5.3e+05 1.2e+04 1.1e+03  1  0 22 57  9   1  0 98 99 30     0
VecScatterEnd       4687 0.0 8.3010e+00 0.0 0.00e+00 0.0 0.0e+00 0.0e+00 0.0e+00  2  0  0  0  0   3  0  0  0  0     0
VecSetRandom          13 0.0 1.1473e-02 0.0 0.00e+00 0.0 0.0e+00 0.0e+00 0.0e+00  0  0  0  0  0   0  0  0  0  0     0
EPSSetUp              13 1.0 4.9529e+01 1.0 0.00e+00 0.0 9.9e+03 3.4e+03 4.4e+02 23  0  0  0  4  36  0  2  1 12     0
EPSSolve              13 1.0 1.3741e+02 1.0 4.75e+09 0.0 5.4e+05 1.1e+04 3.7e+03 64100 22 57 30 100100100100100  2884
STSetUp               20 1.0 2.5835e+01 1.2 0.00e+00 0.0 4.5e+03 4.1e+03 1.5e+02 10  0  0  0  1  16  0  1  0  4     0
STApply             1282 0.0 6.9510e+01 0.0 1.51e+09 0.0 2.9e+05 1.1e+04 1.1e+03 28 29 12 30  9  44 29 53 53 30  1647
STMatSolve          1282 0.0 6.3831e+01 0.0 0.00e+00 0.0 1.5e+05 1.1e+04 1.1e+03 25  0  6 15  9  39  0 27 26 30     0
KSPSetUp              13 1.1 2.4651e-05 1.6 0.00e+00 0.0 0.0e+00 0.0e+00 0.0e+00  0  0  0  0  0   0  0  0  0  0     0
KSPSolve            1282 0.0 6.3674e+01 0.0 0.00e+00 0.0 1.5e+05 1.1e+04 1.1e+03 25  0  6 15  9  39  0 27 26 30     0
PCSetUp               13 1.1 3.8609e+01 1.2 0.00e+00 0.0 0.0e+00 0.0e+00 0.0e+00 16  0  0  0  0  25  0  0  0  0     0
PCApply             1282 0.0 6.3624e+01 0.0 0.00e+00 0.0 1.5e+05 1.1e+04 1.1e+03 25  0  6 15  9  39  0 27 26 30     0
BVCreate              26 0.0 1.7113e-02 0.0 0.00e+00 0.0 0.0e+00 0.0e+00 1.5e+02  0  0  0  0  1   0  0  0  0  4     0
BVCopy                15 0.0 1.8120e-04 0.0 0.00e+00 0.0 0.0e+00 0.0e+00 0.0e+00  0  0  0  0  0   0  0  0  0  0     0
BVMultVec           2087 0.0 3.5949e-01 0.0 2.48e+08 0.0 0.0e+00 0.0e+00 0.0e+00  0  7  0  0  0   0  7  0  0  0 75956
BVMultInPlace         15 0.0 1.0789e-01 0.0 2.47e+08 0.0 0.0e+00 0.0e+00 0.0e+00  0  8  0  0  0   0  8  0  0  0 276759
BVDotVec            2087 0.0 1.4613e+01 0.0 2.71e+09 0.0 2.3e+05 1.2e+04 1.8e+03  6 54 10 25 14   9 54 43 44 48 14620
BVOrthogonalizeV    1101 0.0 1.4982e+01 0.0 2.96e+09 0.0 2.3e+05 1.2e+04 1.8e+03  6 61 10 25 14   9 61 43 44 48 16084
BVScale             1282 0.0 1.1028e-02 0.0 1.89e+06 0.0 0.0e+00 0.0e+00 0.0e+00  0  0  0  0  0   0  0  0  0  0 18951
BVNormVec            188 0.0 1.2872e+00 0.0 2.22e+08 0.0 1.3e+04 1.2e+04 1.0e+02  0  3  1  1  1   1  3  2  3  3  8372
BVSetRandom           13 0.0 1.1587e-02 0.0 0.00e+00 0.0 0.0e+00 0.0e+00 0.0e+00  0  0  0  0  0   0  0  0  0  0     0
DSSolve               15 0.0 1.9792e-01 0.0 0.00e+00 0.0 0.0e+00 0.0e+00 0.0e+00  0  0  0  0  0   0  0  0  0  0     0
DSVectors           1135 0.0 2.6226e-03 0.0 0.00e+00 0.0 0.0e+00 0.0e+00 0.0e+00  0  0  0  0  0   0  0  0  0  0     0
DSOther               15 0.0 6.7240e-03 0.0 0.00e+00 0.0 0.0e+00 0.0e+00 0.0e+00  0  0  0  0  0   0  0  0  0  0     0

--- Event Stage 7: qetsc_eigvals


--- Event Stage 8: qetsc_density

VecCopy             6656 1.0 1.6205e-02 1.1 0.00e+00 0.0 0.0e+00 0.0e+00 0.0e+00  0  0  0  0  0   0  0  0  0  0     0
VecSet                 1 1.0 6.7937e-06 1.4 0.00e+00 0.0 0.0e+00 0.0e+00 0.0e+00  0  0  0  0  0   0  0  0  0  0     0
VecScatterBegin    13312 1.0 2.7244e+00 2.5 0.00e+00 0.0 8.5e+05 1.8e+02 6.7e+03  1  0 35  1 53  14  0 67 84 57     0
VecScatterEnd       6656 1.0 2.4967e+00 1.1 0.00e+00 0.0 0.0e+00 0.0e+00 0.0e+00  1  0  0  0  0  19  0  0  0  0     0
BVCopy              6656 1.0 4.8973e-02 1.1 0.00e+00 0.0 0.0e+00 0.0e+00 0.0e+00  0  0  0  0  0   0  0  0  0  0     0

--- Event Stage 9: Unknown


--- Event Stage 10: siesta_misc


--- Event Stage 11: qetsc_clean


--- Event Stage 12: siesta_move


--- Event Stage 13: siesta_analysis


--- Event Stage 14: siesta_end

------------------------------------------------------------------------------------------------------------------------

Memory usage is given in bytes:

Object Type          Creations   Destructions     Memory  Descendants' Mem.
Reports information only for process 0.

--- Event Stage 0: Main Stage


--- Event Stage 1: siesta_init


--- Event Stage 2: siesta_forces


--- Event Stage 3: siesta_solve


--- Event Stage 4: siesta2qetsc

              Matrix     9              0            0     0.
              Vector    19              1         1648     0.
      Vector Scatter     4              0            0     0.
           Index Set     4              4        16744     0.

--- Event Stage 5: qetsc_setup_eps

              Matrix    34             18     23956718     0.
              Vector   120             76       663464     0.
      Vector Scatter    20             11        11792     0.
           Index Set    73             66       369696     0.
          EPS Solver     2              0            0     0.
  Spectral Transform     2              0            0     0.
       Krylov Solver     2              0            0     0.
      Preconditioner     2              0            0     0.
       Basis Vectors     8              5         5280     0.
         PetscRandom     1              0            0     0.
              Region     2              0            0     0.
       Direct Solver     2              0            0     0.

--- Event Stage 6: qetsc_solve_eps

              Matrix    36             36     48342096     0.
              Vector   161            161      1423952     0.
      Vector Scatter    24             24        25728     0.
           Index Set    48             48       461568     0.
       Basis Vectors    13             13        13728     0.

--- Event Stage 7: qetsc_eigvals


--- Event Stage 8: qetsc_density

              Vector    14             13       174512     0.
      Vector Scatter   833            832       894296     0.
           Index Set  1665           1665      1458448     0.

--- Event Stage 9: Unknown


--- Event Stage 10: siesta_misc


--- Event Stage 11: qetsc_clean

              Matrix     0             25     36779750     0.
              Vector     0             63      1544296     0.
      Vector Scatter     0             14        14176     0.
           Index Set     0              7         5488     0.
          EPS Solver     0              2        31772     0.
  Spectral Transform     0              2         1632     0.
       Krylov Solver     0              2         2336     0.
      Preconditioner     0              2         1952     0.
       Basis Vectors     0              3         3168     0.
         PetscRandom     0              1          638     0.
              Region     0              2         1312     0.
       Direct Solver     0              2       109992     0.

--- Event Stage 12: siesta_move


--- Event Stage 13: siesta_analysis


--- Event Stage 14: siesta_end

              Viewer     1              0            0     0.
========================================================================================================================
Average time to get PetscTime(): 1.24e-07
Average time for MPI_Barrier(): 3.10188e-06
Average time for zero size MPI_Send(): 1.23977e-05
#PETSc Option Table entries:
-eps_interval -2.3,0.
-eps_krylovschur_detect_zeros 0
-eps_krylovschur_partitions 64
-ioptbin 7
-ioptdensity 0
-ioptinertia 1
-ioptleft 2
-log_view
-mat_mumps_cntl_3 1e-12
-mat_mumps_icntl_13 1
-mat_mumps_icntl_23 0
-mat_mumps_icntl_24 1
-mat_mumps_icntl_7 5
-mat_type mpisbaij
-roptbuffer 0.1
-roptdiff 0.02
-writeeigs 1
#End of PETSc Option Table entries
Compiled with FORTRAN kernels
Compiled with full precision matrices (default)
sizeof(short) 2 sizeof(int) 4 sizeof(long) 8 sizeof(void*) 8 sizeof(PetscScalar) 8 sizeof(PetscInt) 4
Configure options: --known-has-attribute-aligned=1 --download-chaco=0 --download-cmake=0 --download-hypre=0 --download-metis=1 --download-mumps=1 --download-parmetis=1 --download-plapack=0 --download-prometheus=0 --download-ptscotch=1 --download-spai=0 --download-spooles=0 --download-superlu=0 --download-superlu_dist=0 --download-triangle=0 --known-bits-per-byte=8 --known-level1-dcache-assoc=0 --known-level1-dcache-linesize=32 --known-level1-dcache-size=32768 --known-memcmp-ok=1 --known-mpi-c-double-complex=1 --known-mpi-int64_t=1 --known-mpi-long-double=1 --known-mpi-shared-libraries=0 --known-sdot-returns-double=0 --known-sizeof-MPI_Comm=4 --known-sizeof-MPI_Fint=4 --known-sizeof-char=1 --known-sizeof-double=8 --known-sizeof-float=4 --known-sizeof-int=4 --known-sizeof-long-long=8 --known-sizeof-long=8 --known-sizeof-short=2 --known-sizeof-size_t=8 --known-sizeof-void-p=8 --known-snrm2-returns-double=0 --with-batch=1 --with-blacs-include=/soft/libraries/alcf/current/xl/SCALAPACK/ --with-blacs-lib=/soft/libraries/alcf/current/xl/SCALAPACK/lib/libscalapack.a --with-blas-lapack-lib="-L/soft/libraries/alcf/current/xl/LAPACK/lib -llapack -L/soft/libraries/alcf/current/xl/BLAS/lib -lblas" --with-cc=mpixlc_r --with-clib-autodetect=0 --with-cxx=mpixlcxx_r --with-cxxlib-autodetect=0 --with-debugging=0 --with-fc="mpixlf77_r -qnosave" --with-fortran-kernels=1 --with-fortranlib-autodetect=0 --with-is-color-value-type=short --with-scalapack-include=/soft/libraries/alcf/current/xl/SCALAPACK/ --with-scalapack-lib=/soft/libraries/alcf/current/xl/SCALAPACK/lib/libscalapack.a --with-shared-libraries=0 --with-x=0 -COPTFLAGS=" -g -O3 -qhot=level=0 -qsimd=auto -qmaxmem=-1 -qstrict -qstrict_induction" -CXXOPTFLAGS="  -g -O3 -qhot=level=0 -qsimd=auto -qmaxmem=-1 -qstrict -qstrict_induction" -FOPTFLAGS=" -g -O3 -qhot=level=0 -qsimd=auto -qmaxmem=-1 -qstrict -qstrict_induction" LIBS="-lmpichcxx-gcc -lmpichf77-gcc -L/soft/compilers/ibmcmp-feb2015/vacpp/bg/12.1/bglib64 -libmc++ -L/soft/compilers/ibmcmp-feb2015/xlf/bg/14.1/bglib64 -lxlf90_r -lxlomp_ser -lxlfmath" PETSC_ARCH=arch-xl
-----------------------------------------
Libraries compiled on Sat Aug 20 04:19:47 2016 on vestalac2 
Machine characteristics: Linux-2.6.32-573.18.1.el6.ppc64-ppc64-with-redhat-6.7-Santiago
Using PETSc directory: /home/keceli/scratch2/petsc
Using PETSc arch: arch-xl
-----------------------------------------

Using C compiler: mpixlc_r   -g -O3 -qhot=level=0 -qsimd=auto -qmaxmem=-1 -qstrict -qstrict_induction  ${COPTFLAGS} ${CFLAGS}
Using Fortran compiler: mpixlf77_r -qnosave  -g -O3 -qhot=level=0 -qsimd=auto -qmaxmem=-1 -qstrict -qstrict_induction   ${FOPTFLAGS} ${FFLAGS} 
-----------------------------------------

Using include paths: -I/home/keceli/scratch2/petsc/arch-xl/include -I/home/keceli/scratch2/petsc/include -I/home/keceli/scratch2/petsc/include -I/home/keceli/scratch2/petsc/arch-xl/include -I/bgsys/drivers/V1R2M4/ppc64/comm/include -I/bgsys/drivers/V1R2M4/ppc64/comm/lib/xl -I/bgsys/drivers/V1R2M4/ppc64 -I/bgsys/drivers/V1R2M4/ppc64/comm/sys/include -I/bgsys/drivers/V1R2M4/ppc64/spi/include -I/bgsys/drivers/V1R2M4/ppc64/spi/include/kernel/cnk
-----------------------------------------

Using C linker: mpixlc_r
Using Fortran linker: mpixlf77_r -qnosave
Using libraries: -Wl,-rpath,/home/keceli/scratch2/petsc/arch-xl/lib -L/home/keceli/scratch2/petsc/arch-xl/lib -lpetsc -Wl,-rpath,/home/keceli/scratch2/petsc/arch-xl/lib -L/home/keceli/scratch2/petsc/arch-xl/lib -lcmumps -ldmumps -lsmumps -lzmumps -lmumps_common -lpord -Wl,-rpath,/soft/libraries/alcf/current/xl/SCALAPACK/lib -L/soft/libraries/alcf/current/xl/SCALAPACK/lib -lscalapack -L/soft/libraries/alcf/current/xl/LAPACK/lib -llapack -L/soft/libraries/alcf/current/xl/BLAS/lib -lblas -lparmetis -lmetis -lptesmumps -lptscotch -lptscotcherr -lscotch -lscotcherr -lrt -lm -lpthread -ldl -lmpichcxx-gcc -lmpichf77-gcc -L/soft/compilers/ibmcmp-feb2015/vacpp/bg/12.1/bglib64 -libmc++ -L/soft/compilers/ibmcmp-feb2015/xlf/bg/14.1/bglib64 -lxlf90_r -lxlomp_ser -lxlfmath
-----------------------------------------

