s.subSiesta: Submission time = 18s42m12h
s.subSiesta: Job name = qb8_s16_n8_c16
s.subSiesta: Number of nodes = 8
s.subSiesta: Number of cores = 128
s.subSiesta: Number of cores/node = 16
s.subSiesta: Number of slices = 16
s.subSiesta: Mapping = ABCDET
18s42m12h
#QETSc options
-ioptbin 7
-ioptdensity 0
-ioptinertia 1
-ioptleft 2
-roptbuffer 0.01
-roptdiff 0.02
-writeeigs 1

#PETSc options
-mat_type mpisbaij
-log_view
#-mat_view
#-memory_view
#-mat_mumps_icntl_13 1 #turn off scaLAPACK for matrix inertia
#-mat_mumps_icntl_24 1 #null pivot row detection for matrix inertia
-mat_mumps_icntl_23 0
#-mat_mumps_icntl_28 1 # serial analysis
#-mat_mumps_icntl_28 2 #parallel analysis
#-mat_mumps_icntl_29 1 #ptscotch
#-mat_mumps_icntl_29 2 #parmetis
-mat_mumps_icntl_7 5 #metis
#-malloc_info 
#-mat_view ::ascii_info 
#-mat_getrow_uppertriangular 1
#-st_type sinvert 
#-st_ksp_type preonly 
#-st_pc_type cholesky 
#-st_pc_factor_mat_solver_package mumps 

#SLEPc options

#-eps_krylovschur_partitions 1  
-eps_interval -2.3,0.
#-eps_tol  1.e-8
-eps_krylovschur_detect_zeros 0
#-eps_purify 1
SystemName          BN
SystemLabel         BN
NumberOfAtoms       2
NumberOfSpecies     2

SolutionMethod  slepc1
DM.MixingWeight 0.3
DM.NumberPulay 3
WriteDM .false.
WriteDM.NetCDF .false.
WriteDMHS.NetCDF .false.
LongOutput .false.


%block ChemicalSpeciesLabel
 1  5  B
 2  7  N
%endblock ChemicalSpeciesLabel

PAO.BasisType split
PAO.BasisSize DZP

LatticeConstant 1.00 Ang
%block LatticeVectors
20.000000000000000        0.0000000000000000        0.0000000000000000        
0.0000000000000000        2.1385199999999998        1.2346750976673984        
0.0000000000000000        2.1385199999999998       -1.2346750976673984        
%endblock LatticeVectors

%block kgrid_Monkhorst_Pack
1 0 0 0.0
0 1 0 0.0
0 0 1 0.0
%endblock kgrid_Monkhorst_Pack

%block SuperCell
1 0 0
0 8 0
0 0 8
%endblock SuperCell

AtomicCoordinatesFormat Ang
%block AtomicCoordinatesAndAtomicSpecies
 0.0000000000000000 1.4256799999999998 0.0000000000000000 1
 0.0000000000000000 2.8513599999999997 0.0000000000000000 2
%endblock AtomicCoordinatesAndAtomicSpecies
Siesta Version: siesta-trunk-492
Architecture  : powerpc64-unknown-linux-gnu--Xlf
Compiler flags: mpixlf90_r -I/home/keceli/scratch2/petsc/include -I/home/keceli/scratch2/petssc/arch-xl/include -I/bgsys/drivers/V1R2M4/ppc64/comm/include -I/bgsys/drivers/V1R2M4/ppc64/comm/lib/xl -I/bgsys/drivers/V1R2M4/ppc64 -I/bgsys/drivers/V1R2M4/ppc64/comm/sys/include -I/bgsys/drivers/V1R2M4/ppc64/spi/include -I/bgsys/drivers/V1R2M4/ppc64/spi/include/kernel/cnk -I/home/keceli/scratch2/slepcfork/include -I/home/keceli/scratch2/slepcfork/arch-xl/include
PP flags      : -WF,-DMPI -WF,-DFC_HAVE_ABORT -WF,-DBSC_CELLXC -WF,-DMPI_TIMING 
PARALLEL version

* Running on  128 nodes in parallel
>> Start of run:   8-DEC-2016  12:43:12

                           ***********************       
                           *  WELCOME TO SIESTA  *       
                           ***********************       
WARNING: Siesta is reading its input from file INPUT_DEBUG

reinit: -----------------------------------------------------------------------
reinit: System Name: BN
reinit: -----------------------------------------------------------------------
reinit: System Label: BN                                                          
reinit: -----------------------------------------------------------------------

initatom: Reading input for the pseudopotentials and atomic orbitals ----------
Species number:   1 Atomic number:    5 Label: B
Species number:   2 Atomic number:    7 Label: N
 
Ground state valence configuration:   2s02  2p01
Reading pseudopotential information in formatted form from B.psf

Valence configuration for pseudopotential generation:
2s( 2.00) rc: 1.74
2p( 1.00) rc: 1.74
3d( 0.00) rc: 1.74
4f( 0.00) rc: 1.74
Ground state valence configuration:   2s02  2p03
Reading pseudopotential information in formatted form from N.psf

Valence configuration for pseudopotential generation:
2s( 2.00) rc: 1.48
2p( 3.00) rc: 1.48
3d( 0.00) rc: 1.48
4f( 0.00) rc: 1.48
For B, standard SIESTA heuristics set lmxkb to 3
 (one more than the basis l, including polarization orbitals).
Use PS.lmax or PS.KBprojectors blocks to override.
For N, standard SIESTA heuristics set lmxkb to 3
 (one more than the basis l, including polarization orbitals).
Use PS.lmax or PS.KBprojectors blocks to override.

<basis_specs>
===============================================================================
B                    Z=   5    Mass=  10.810        Charge= 0.17977+309
Lmxo=1 Lmxkb= 3    BasisType=split      Semic=F
L=0  Nsemic=0  Cnfigmx=2
          n=1  nzeta=2  polorb=0
            splnorm:   0.15000    
               vcte:    0.0000    
               rinn:    0.0000    
               qcoe:    0.0000    
               qyuk:    0.0000    
               qwid:   0.10000E-01
                rcs:    0.0000      0.0000    
            lambdas:    1.0000      1.0000    
L=1  Nsemic=0  Cnfigmx=2
          n=1  nzeta=2  polorb=1
            splnorm:   0.15000    
               vcte:    0.0000    
               rinn:    0.0000    
               qcoe:    0.0000    
               qyuk:    0.0000    
               qwid:   0.10000E-01
                rcs:    0.0000      0.0000    
            lambdas:    1.0000      1.0000    
-------------------------------------------------------------------------------
L=0  Nkbl=1  erefs: 0.17977+309
L=1  Nkbl=1  erefs: 0.17977+309
L=2  Nkbl=1  erefs: 0.17977+309
L=3  Nkbl=1  erefs: 0.17977+309
===============================================================================
</basis_specs>

atom: Called for B                     (Z =   5)

read_vps: Pseudopotential generation method:
read_vps: ATM3      Troullier-Martins                       
Total valence charge:    3.00000

read_vps: Pseudopotential includes a core correction:
read_vps: Pseudo-core for xc-correction

xc_check: Exchange-correlation functional:
xc_check: Ceperley-Alder
V l=0 = -2*Zval/r beyond r=  1.7165
V l=1 = -2*Zval/r beyond r=  1.7165
V l=2 = -2*Zval/r beyond r=  1.7165
V l=3 = -2*Zval/r beyond r=  1.6951
All V_l potentials equal beyond r=  1.7165
This should be close to max(r_c) in ps generation
All pots = -2*Zval/r beyond r=  1.7165

VLOCAL1: 99.0% of the norm of Vloc inside     14.733 Ry
VLOCAL1: 99.9% of the norm of Vloc inside     33.577 Ry
atom: Maximum radius for 4*pi*r*r*local-pseudopot. charge    2.04484
atom: Maximum radius for r*vlocal+2*Zval:    1.75994
GHOST: No ghost state for L =  0
GHOST: No ghost state for L =  1
GHOST: No ghost state for L =  2
GHOST: No ghost state for L =  3

KBgen: Kleinman-Bylander projectors: 
   l= 0   rc=  1.897051   el= -0.689821   Ekb=  4.267659   kbcos=  0.294941
   l= 1   rc=  1.920920   el= -0.273582   Ekb= -2.493518   kbcos= -0.316494
   l= 2   rc=  2.044840   el=  0.002410   Ekb= -0.642570   kbcos= -0.014732
   l= 3   rc=  2.149707   el=  0.003543   Ekb= -0.260486   kbcos= -0.002341

KBgen: Total number of  Kleinman-Bylander projectors:   16
atom: -------------------------------------------------------------------------

atom: SANKEY-TYPE ORBITALS:
atom: Selected multiple-zeta basis: split     

SPLIT: Orbitals with angular momentum L= 0

SPLIT: Basis orbitals for state 2s

SPLIT: PAO cut-off radius determined from an
SPLIT: energy shift=  0.020000 Ry

   izeta = 1
                 lambda =    1.000000
                     rc =    4.906010
                 energy =   -0.672079
                kinetic =    0.600553
    potential(screened) =   -1.272632
       potential(ionic) =   -3.301886

   izeta = 2
                 rmatch =    4.170113
              splitnorm =    0.150000
                 energy =   -0.581071
                kinetic =    0.883210
    potential(screened) =   -1.464280
       potential(ionic) =   -3.607314

SPLIT: Orbitals with angular momentum L= 1

SPLIT: Basis orbitals for state 2p

SPLIT: PAO cut-off radius determined from an
SPLIT: energy shift=  0.020000 Ry

   izeta = 1
                 lambda =    1.000000
                     rc =    5.700051
                 energy =   -0.254269
                kinetic =    1.609303
    potential(screened) =   -1.863571
       potential(ionic) =   -3.822590

   izeta = 2
                 rmatch =    4.275693
              splitnorm =    0.150000
                 energy =   -0.140145
                kinetic =    2.432023
    potential(screened) =   -2.572168
       potential(ionic) =   -4.719137

POLgen: Perturbative polarization orbital with L=  2

POLgen: Polarization orbital for state 2p

   izeta = 1
                     rc =    5.700051
                 energy =    0.829041
                kinetic =    1.746766
    potential(screened) =   -0.917724
       potential(ionic) =   -2.618902
atom: Total number of Sankey-type orbitals: 13

atm_pop: Valence configuration (for local Pseudopot. screening):
 2s( 2.00)                                                            
 2p( 1.00)                                                            
Vna: chval, zval:    3.00000   3.00000

Vna:  Cut-off radius for the neutral-atom potential:   5.700051
comcore: Pseudo-core radius Rcore=  2.122997

atom: _________________________________________________________________________

<basis_specs>
===============================================================================
N                    Z=   7    Mass=  14.010        Charge= 0.17977+309
Lmxo=1 Lmxkb= 3    BasisType=split      Semic=F
L=0  Nsemic=0  Cnfigmx=2
          n=1  nzeta=2  polorb=0
            splnorm:   0.15000    
               vcte:    0.0000    
               rinn:    0.0000    
               qcoe:    0.0000    
               qyuk:    0.0000    
               qwid:   0.10000E-01
                rcs:    0.0000      0.0000    
            lambdas:    1.0000      1.0000    
L=1  Nsemic=0  Cnfigmx=2
          n=1  nzeta=2  polorb=1
            splnorm:   0.15000    
               vcte:    0.0000    
               rinn:    0.0000    
               qcoe:    0.0000    
               qyuk:    0.0000    
               qwid:   0.10000E-01
                rcs:    0.0000      0.0000    
            lambdas:    1.0000      1.0000    
-------------------------------------------------------------------------------
L=0  Nkbl=1  erefs: 0.17977+309
L=1  Nkbl=1  erefs: 0.17977+309
L=2  Nkbl=1  erefs: 0.17977+309
L=3  Nkbl=1  erefs: 0.17977+309
===============================================================================
</basis_specs>

atom: Called for N                     (Z =   7)

read_vps: Pseudopotential generation method:
read_vps: ATM3      Troullier-Martins                       
Total valence charge:    5.00000

xc_check: Exchange-correlation functional:
xc_check: Ceperley-Alder
V l=0 = -2*Zval/r beyond r=  1.4606
V l=1 = -2*Zval/r beyond r=  1.4606
V l=2 = -2*Zval/r beyond r=  1.4606
V l=3 = -2*Zval/r beyond r=  1.4606
All V_l potentials equal beyond r=  1.4606
This should be close to max(r_c) in ps generation
All pots = -2*Zval/r beyond r=  1.4606

VLOCAL1: 99.0% of the norm of Vloc inside     20.347 Ry
VLOCAL1: 99.9% of the norm of Vloc inside     46.372 Ry
atom: Maximum radius for 4*pi*r*r*local-pseudopot. charge    1.76189
atom: Maximum radius for r*vlocal+2*Zval:    1.53550
GHOST: No ghost state for L =  0
GHOST: No ghost state for L =  1
GHOST: No ghost state for L =  2
GHOST: No ghost state for L =  3

KBgen: Kleinman-Bylander projectors: 
   l= 0   rc=  1.634559   el= -1.352239   Ekb=  4.901185   kbcos=  0.337501
   l= 1   rc=  1.614250   el= -0.532623   Ekb= -5.544141   kbcos= -0.433040
   l= 2   rc=  1.740002   el=  0.002346   Ekb= -1.331777   kbcos= -0.007563
   l= 3   rc=  1.806505   el=  0.003449   Ekb= -0.515466   kbcos= -0.000994

KBgen: Total number of  Kleinman-Bylander projectors:   16
atom: -------------------------------------------------------------------------

atom: SANKEY-TYPE ORBITALS:
atom: Selected multiple-zeta basis: split     

SPLIT: Orbitals with angular momentum L= 0

SPLIT: Basis orbitals for state 2s

SPLIT: PAO cut-off radius determined from an
SPLIT: energy shift=  0.020000 Ry

   izeta = 1
                 lambda =    1.000000
                     rc =    3.683980
                 energy =   -1.333780
                kinetic =    1.203249
    potential(screened) =   -2.537029
       potential(ionic) =   -8.126274

   izeta = 2
                 rmatch =    2.905100
              splitnorm =    0.150000
                 energy =   -1.138702
                kinetic =    1.810192
    potential(screened) =   -2.948894
       potential(ionic) =   -8.945013

SPLIT: Orbitals with angular momentum L= 1

SPLIT: Basis orbitals for state 2p

SPLIT: PAO cut-off radius determined from an
SPLIT: energy shift=  0.020000 Ry

   izeta = 1
                 lambda =    1.000000
                     rc =    4.280232
                 energy =   -0.512466
                kinetic =    3.598849
    potential(screened) =   -4.111315
       potential(ionic) =   -9.550563

   izeta = 2
                 rmatch =    2.941647
              splitnorm =    0.150000
                 energy =   -0.292244
                kinetic =    5.357522
    potential(screened) =   -5.649767
       potential(ionic) =  -11.693436

POLgen: Perturbative polarization orbital with L=  2

POLgen: Polarization orbital for state 2p

   izeta = 1
                     rc =    4.280232
                 energy =    1.826084
                kinetic =    3.687342
    potential(screened) =   -1.861257
       potential(ionic) =   -6.363951
atom: Total number of Sankey-type orbitals: 13

atm_pop: Valence configuration (for local Pseudopot. screening):
 2s( 2.00)                                                            
 2p( 3.00)                                                            
Vna: chval, zval:    5.00000   5.00000

Vna:  Cut-off radius for the neutral-atom potential:   4.280232

atom: _________________________________________________________________________

prinput: Basis input ----------------------------------------------------------

PAO.BasisType split     

%block ChemicalSpeciesLabel
    1    5 B                       # Species index, atomic number, species label
    2    7 N                       # Species index, atomic number, species label
%endblock ChemicalSpeciesLabel

%block PAO.Basis                 # Define Basis set
B                     2                    # Species label, number of l-shells
 n=2   0   2                         # n, l, Nzeta 
   4.906      4.170   
   1.000      1.000   
 n=2   1   2 P   1                   # n, l, Nzeta, Polarization, NzetaPol
   5.700      4.276   
   1.000      1.000   
N                     2                    # Species label, number of l-shells
 n=2   0   2                         # n, l, Nzeta 
   3.684      2.905   
   1.000      1.000   
 n=2   1   2 P   1                   # n, l, Nzeta, Polarization, NzetaPol
   4.280      2.942   
   1.000      1.000   
%endblock PAO.Basis

prinput: ----------------------------------------------------------------------

coor:   Atomic-coordinates input format  =     Cartesian coordinates
coor:                                          (in Angstroms)

siesta: Atomic coordinates (Bohr) and species
siesta:      0.00000   2.69415   0.00000  1        1
siesta:      0.00000   5.38829   0.00000  2        2
siesta:      0.00000   6.73536   2.33320  1        3
siesta:      0.00000   9.42951   2.33320  2        4
siesta:      0.00000  10.77658   4.66640  1        5
siesta:      0.00000  13.47073   4.66640  2        6
siesta:      0.00000  14.81780   6.99960  1        7
siesta:      0.00000  17.51195   6.99960  2        8
siesta:      0.00000  18.85902   9.33279  1        9
siesta:      0.00000  21.55317   9.33279  2       10
siesta:      0.00000  22.90024  11.66599  1       11
siesta:      0.00000  25.59439  11.66599  2       12
siesta:      0.00000  26.94146  13.99919  1       13
siesta:      0.00000  29.63560  13.99919  2       14
siesta:      0.00000  30.98268  16.33239  1       15
siesta:      0.00000  33.67682  16.33239  2       16
siesta:      0.00000   6.73536  -2.33320  1       17
siesta:      0.00000   9.42951  -2.33320  2       18
siesta:      0.00000  10.77658   0.00000  1       19
siesta:      0.00000  13.47073   0.00000  2       20
siesta:      0.00000  14.81780   2.33320  1       21
siesta:      0.00000  17.51195   2.33320  2       22
siesta:      0.00000  18.85902   4.66640  1       23
siesta:      0.00000  21.55317   4.66640  2       24
siesta:      0.00000  22.90024   6.99960  1       25
siesta:      0.00000  25.59439   6.99960  2       26
siesta:      0.00000  26.94146   9.33279  1       27
siesta:      0.00000  29.63560   9.33279  2       28
siesta:      0.00000  30.98268  11.66599  1       29
siesta:      0.00000  33.67682  11.66599  2       30
siesta:      0.00000  35.02390  13.99919  1       31
siesta:      0.00000  37.71804  13.99919  2       32
siesta:      0.00000  10.77658  -4.66640  1       33
siesta:      0.00000  13.47073  -4.66640  2       34
siesta:      0.00000  14.81780  -2.33320  1       35
siesta:      0.00000  17.51195  -2.33320  2       36
siesta:      0.00000  18.85902   0.00000  1       37
siesta:      0.00000  21.55317   0.00000  2       38
siesta:      0.00000  22.90024   2.33320  1       39
siesta:      0.00000  25.59439   2.33320  2       40
siesta:      0.00000  26.94146   4.66640  1       41
siesta:      0.00000  29.63560   4.66640  2       42
siesta:      0.00000  30.98268   6.99960  1       43
siesta:      0.00000  33.67682   6.99960  2       44
siesta:      0.00000  35.02390   9.33279  1       45
siesta:      0.00000  37.71804   9.33279  2       46
siesta:      0.00000  39.06511  11.66599  1       47
siesta:      0.00000  41.75926  11.66599  2       48
siesta:      0.00000  14.81780  -6.99960  1       49
siesta:      0.00000  17.51195  -6.99960  2       50
siesta:      0.00000  18.85902  -4.66640  1       51
siesta:      0.00000  21.55317  -4.66640  2       52
siesta:      0.00000  22.90024  -2.33320  1       53
siesta:      0.00000  25.59439  -2.33320  2       54
siesta:      0.00000  26.94146   0.00000  1       55
siesta:      0.00000  29.63560   0.00000  2       56
siesta:      0.00000  30.98268   2.33320  1       57
siesta:      0.00000  33.67682   2.33320  2       58
siesta:      0.00000  35.02390   4.66640  1       59
siesta:      0.00000  37.71804   4.66640  2       60
siesta:      0.00000  39.06511   6.99960  1       61
siesta:      0.00000  41.75926   6.99960  2       62
siesta:      0.00000  43.10633   9.33279  1       63
siesta:      0.00000  45.80048   9.33279  2       64
siesta:      0.00000  18.85902  -9.33279  1       65
siesta:      0.00000  21.55317  -9.33279  2       66
siesta:      0.00000  22.90024  -6.99960  1       67
siesta:      0.00000  25.59439  -6.99960  2       68
siesta:      0.00000  26.94146  -4.66640  1       69
siesta:      0.00000  29.63560  -4.66640  2       70
siesta:      0.00000  30.98268  -2.33320  1       71
siesta:      0.00000  33.67682  -2.33320  2       72
siesta:      0.00000  35.02390   0.00000  1       73
siesta:      0.00000  37.71804   0.00000  2       74
siesta:      0.00000  39.06511   2.33320  1       75
siesta:      0.00000  41.75926   2.33320  2       76
siesta:      0.00000  43.10633   4.66640  1       77
siesta:      0.00000  45.80048   4.66640  2       78
siesta:      0.00000  47.14755   6.99960  1       79
siesta:      0.00000  49.84170   6.99960  2       80
siesta:      0.00000  22.90024 -11.66599  1       81
siesta:      0.00000  25.59439 -11.66599  2       82
siesta:      0.00000  26.94146  -9.33279  1       83
siesta:      0.00000  29.63560  -9.33279  2       84
siesta:      0.00000  30.98268  -6.99960  1       85
siesta:      0.00000  33.67682  -6.99960  2       86
siesta:      0.00000  35.02390  -4.66640  1       87
siesta:      0.00000  37.71804  -4.66640  2       88
siesta:      0.00000  39.06511  -2.33320  1       89
siesta:      0.00000  41.75926  -2.33320  2       90
siesta:      0.00000  43.10633   0.00000  1       91
siesta:      0.00000  45.80048   0.00000  2       92
siesta:      0.00000  47.14755   2.33320  1       93
siesta:      0.00000  49.84170   2.33320  2       94
siesta:      0.00000  51.18877   4.66640  1       95
siesta:      0.00000  53.88292   4.66640  2       96
siesta:      0.00000  26.94146 -13.99919  1       97
siesta:      0.00000  29.63560 -13.99919  2       98
siesta:      0.00000  30.98268 -11.66599  1       99
siesta:      0.00000  33.67682 -11.66599  2      100
siesta:      0.00000  35.02390  -9.33279  1      101
siesta:      0.00000  37.71804  -9.33279  2      102
siesta:      0.00000  39.06511  -6.99960  1      103
siesta:      0.00000  41.75926  -6.99960  2      104
siesta:      0.00000  43.10633  -4.66640  1      105
siesta:      0.00000  45.80048  -4.66640  2      106
siesta:      0.00000  47.14755  -2.33320  1      107
siesta:      0.00000  49.84170  -2.33320  2      108
siesta:      0.00000  51.18877   0.00000  1      109
siesta:      0.00000  53.88292   0.00000  2      110
siesta:      0.00000  55.22999   2.33320  1      111
siesta:      0.00000  57.92414   2.33320  2      112
siesta:      0.00000  30.98268 -16.33239  1      113
siesta:      0.00000  33.67682 -16.33239  2      114
siesta:      0.00000  35.02390 -13.99919  1      115
siesta:      0.00000  37.71804 -13.99919  2      116
siesta:      0.00000  39.06511 -11.66599  1      117
siesta:      0.00000  41.75926 -11.66599  2      118
siesta:      0.00000  43.10633  -9.33279  1      119
siesta:      0.00000  45.80048  -9.33279  2      120
siesta:      0.00000  47.14755  -6.99960  1      121
siesta:      0.00000  49.84170  -6.99960  2      122
siesta:      0.00000  51.18877  -4.66640  1      123
siesta:      0.00000  53.88292  -4.66640  2      124
siesta:      0.00000  55.22999  -2.33320  1      125
siesta:      0.00000  57.92414  -2.33320  2      126
siesta:      0.00000  59.27121   0.00000  1      127
siesta:      0.00000  61.96535   0.00000  2      128

siesta: System type = slab      

initatomlists: Number of atoms, orbitals, and projectors:    128  1664  2048

siesta: ******************** Simulation parameters ****************************
siesta:
siesta: The following are some of the parameters of the simulation.
siesta: A complete list of the parameters used, including default values,
siesta: can be found in file out.fdf
siesta:
redata: Non-Collinear-spin run           =     F
redata: SpinPolarized (Up/Down) run      =     F
redata: Number of spin components        =     1
redata: Long output                      =     F
redata: Number of Atomic Species         =        2
redata: Charge density info will appear in .RHO file
redata: Write Mulliken Pop.              =     NO
redata: Mesh Cutoff                      =   100.0000  Ry
redata: Net charge of the system         =     0.0000 |e|
redata: Min. number of SCF Iter          =        0
redata: Max. number of SCF Iter          =       50
redata: Mix DM or H after convergence    =     F
redata: Recompute H after scf cycle      =     F
redata: Performing Pulay mixing using    =     3 iterations
redata: Mix DM in first SCF step ?       =     F
redata: Write Pulay info on disk?        =     F
redata: Discard 1st Pulay DM after  kick =     F
redata: New DM Mixing Weight             =     0.3000
redata: New DM Occupancy tolerance       = 0.000000000001
redata: No kicks to SCF
redata: DM Mixing Weight for Kicks       =     0.5000
redata: DM Tolerance for SCF             =     0.000100
redata: Require (free) Energy convergence in SCF =     F
redata: DM (free)Energy tolerance for SCF =     0.000010 eV
redata: Require Harris convergence for SCF =     F
redata: DM Harris energy tolerance for SCF =     0.000010 eV
redata: Using Saved Data (generic)   =     F
redata: Use continuation files for DM    =     F
redata: Neglect nonoverlap interactions  =     F
redata: Method of Calculation            =     old SLEPc
redata: Fix the spin of the system       =     F
redata: Dynamics option                  =     Single-point calculation
redata: ***********************************************************************
Total number of electrons:   512.000000
Total ionic charge:   512.000000

* ProcessorY, Blocksize:    8  13


* Orbital distribution balance (max,min):    13    13

 Kpoints in:  1 . Kpoints trimmed:  1

siesta: k-grid: Number of k-points =     1
siesta: k-grid: Cutoff (effective) =     9.877 Ang
siesta: k-grid: Supercell and displacements
siesta: k-grid:    1   0   0      0.000
siesta: k-grid:    0   1   0      0.000
siesta: k-grid:    0   0   1      0.000

                     ====================================
                        Single-point calculation
                     ====================================

outcell: Unit cell vectors (Ang):
       20.000000    0.000000    0.000000
        0.000000   17.108160    9.877401
        0.000000   17.108160   -9.877401

outcell: Cell vector modules (Ang)   :   20.000000   19.754802   19.754802
outcell: Cell angles (23,13,12) (deg):     60.0000     90.0000     90.0000
outcell: Cell volume (Ang**3)        :   6759.3661
New_DM. Step:     1
Initializing Density Matrix...
New grid distribution:   1
           1       1:   64    1:    7    1:    4
           2       1:   64    1:    7    5:    8
           3       1:   64    1:    7    9:   12
           4       1:   64    1:    7   13:   16
           5       1:   64    1:    7   17:   20
           6       1:   64    1:    7   21:   24
           7       1:   64    1:    7   25:   27
           8       1:   64    1:    7   28:   30
           9       1:   64    1:    7   31:   33
          10       1:   64    1:    7   34:   36
          11       1:   64    1:    7   37:   39
          12       1:   64    1:    7   40:   42
          13       1:   64    1:    7   43:   45
          14       1:   64    1:    7   46:   48
          15       1:   64    1:    7   49:   51
          16       1:   64    1:    7   52:   54
          17       1:   64    8:   14    1:    4
          18       1:   64    8:   14    5:    8
          19       1:   64    8:   14    9:   12
          20       1:   64    8:   14   13:   16
          21       1:   64    8:   14   17:   20
          22       1:   64    8:   14   21:   24
          23       1:   64    8:   14   25:   27
          24       1:   64    8:   14   28:   30
          25       1:   64    8:   14   31:   33
          26       1:   64    8:   14   34:   36
          27       1:   64    8:   14   37:   39
          28       1:   64    8:   14   40:   42
          29       1:   64    8:   14   43:   45
          30       1:   64    8:   14   46:   48
          31       1:   64    8:   14   49:   51
          32       1:   64    8:   14   52:   54
          33       1:   64   15:   21    1:    4
          34       1:   64   15:   21    5:    8
          35       1:   64   15:   21    9:   12
          36       1:   64   15:   21   13:   16
          37       1:   64   15:   21   17:   20
          38       1:   64   15:   21   21:   24
          39       1:   64   15:   21   25:   27
          40       1:   64   15:   21   28:   30
          41       1:   64   15:   21   31:   33
          42       1:   64   15:   21   34:   36
          43       1:   64   15:   21   37:   39
          44       1:   64   15:   21   40:   42
          45       1:   64   15:   21   43:   45
          46       1:   64   15:   21   46:   48
          47       1:   64   15:   21   49:   51
          48       1:   64   15:   21   52:   54
          49       1:   64   22:   28    1:    4
          50       1:   64   22:   28    5:    8
          51       1:   64   22:   28    9:   12
          52       1:   64   22:   28   13:   16
          53       1:   64   22:   28   17:   20
          54       1:   64   22:   28   21:   24
          55       1:   64   22:   28   25:   27
          56       1:   64   22:   28   28:   30
          57       1:   64   22:   28   31:   33
          58       1:   64   22:   28   34:   36
          59       1:   64   22:   28   37:   39
          60       1:   64   22:   28   40:   42
          61       1:   64   22:   28   43:   45
          62       1:   64   22:   28   46:   48
          63       1:   64   22:   28   49:   51
          64       1:   64   22:   28   52:   54
          65       1:   64   29:   35    1:    4
          66       1:   64   29:   35    5:    8
          67       1:   64   29:   35    9:   12
          68       1:   64   29:   35   13:   16
          69       1:   64   29:   35   17:   20
          70       1:   64   29:   35   21:   24
          71       1:   64   29:   35   25:   27
          72       1:   64   29:   35   28:   30
          73       1:   64   29:   35   31:   33
          74       1:   64   29:   35   34:   36
          75       1:   64   29:   35   37:   39
          76       1:   64   29:   35   40:   42
          77       1:   64   29:   35   43:   45
          78       1:   64   29:   35   46:   48
          79       1:   64   29:   35   49:   51
          80       1:   64   29:   35   52:   54
          81       1:   64   36:   42    1:    4
          82       1:   64   36:   42    5:    8
          83       1:   64   36:   42    9:   12
          84       1:   64   36:   42   13:   16
          85       1:   64   36:   42   17:   20
          86       1:   64   36:   42   21:   24
          87       1:   64   36:   42   25:   27
          88       1:   64   36:   42   28:   30
          89       1:   64   36:   42   31:   33
          90       1:   64   36:   42   34:   36
          91       1:   64   36:   42   37:   39
          92       1:   64   36:   42   40:   42
          93       1:   64   36:   42   43:   45
          94       1:   64   36:   42   46:   48
          95       1:   64   36:   42   49:   51
          96       1:   64   36:   42   52:   54
          97       1:   64   43:   48    1:    4
          98       1:   64   43:   48    5:    8
          99       1:   64   43:   48    9:   12
         100       1:   64   43:   48   13:   16
         101       1:   64   43:   48   17:   20
         102       1:   64   43:   48   21:   24
         103       1:   64   43:   48   25:   27
         104       1:   64   43:   48   28:   30
         105       1:   64   43:   48   31:   33
         106       1:   64   43:   48   34:   36
         107       1:   64   43:   48   37:   39
         108       1:   64   43:   48   40:   42
         109       1:   64   43:   48   43:   45
         110       1:   64   43:   48   46:   48
         111       1:   64   43:   48   49:   51
         112       1:   64   43:   48   52:   54
         113       1:   64   49:   54    1:    4
         114       1:   64   49:   54    5:    8
         115       1:   64   49:   54    9:   12
         116       1:   64   49:   54   13:   16
         117       1:   64   49:   54   17:   20
         118       1:   64   49:   54   21:   24
         119       1:   64   49:   54   25:   27
         120       1:   64   49:   54   28:   30
         121       1:   64   49:   54   31:   33
         122       1:   64   49:   54   34:   36
         123       1:   64   49:   54   37:   39
         124       1:   64   49:   54   40:   42
         125       1:   64   49:   54   43:   45
         126       1:   64   49:   54   46:   48
         127       1:   64   49:   54   49:   51
         128       1:   64   49:   54   52:   54

InitMesh: MESH =   128 x   108 x   108 =     1492992
InitMesh: (bp) =    64 x    54 x    54 =      186624
InitMesh: Mesh cutoff (required, used) =   100.000   110.139 Ry
ExtMesh (bp) on 0 =   104 x    47 x    44 =      215072
New grid distribution:   2
           1       7:   59    1:   14    1:   14
           2       5:    6   41:   54    1:   13
           3      62:   63    1:   13    1:   13
           4      64:   64    1:   13   14:   27
           5      60:   61    1:   14   15:   27
           6       5:    6    1:   13    1:   13
           7       1:    1   15:   27   14:   27
           8       7:   59    1:   14   28:   41
           9      60:   61    1:   14   28:   41
          10       5:    6    1:   13   14:   27
          11       5:    6    1:   13   28:   40
          12       1:    1    1:   13   28:   40
          13       7:   59    1:   14   42:   54
          14       5:    6    1:   13   41:   54
          15       2:    2    1:   14   41:   54
          16       2:    2    1:   13    1:   13
          17      60:   61    1:   14    1:   14
          18       3:    4    1:   13    1:   13
          19       1:    1   14:   27    1:   13
          20       3:    4    1:   13   14:   27
          21       7:   59    1:   14   15:   27
          22      62:   63    1:   13   14:   27
          23       1:    1    1:   13    1:   13
          24       3:    4    1:   13   28:   40
          25       5:    6   41:   54   14:   27
          26       3:    4   14:   27    1:   13
          27      62:   63    1:   13   28:   40
          28       2:    2    1:   13   28:   40
          29      62:   63   14:   27   14:   27
          30      60:   61    1:   14   42:   54
          31       1:    1    1:   14   41:   54
          32       1:    1   28:   40    1:   13
          33       7:   59   15:   27    1:   14
          34      62:   63   14:   27    1:   13
          35       1:    1    1:   14   14:   27
          36       2:    2   14:   27    1:   13
          37       5:    6   14:   27    1:   13
          38      60:   61   15:   27   15:   27
          39       2:    2   15:   27   14:   27
          40       7:   59   15:   27   28:   41
          41      62:   63   14:   27   28:   40
          42       2:    2    1:   14   14:   27
          43       1:    1   14:   27   28:   40
          44       3:    4   14:   27   41:   54
          45       7:   59   15:   27   42:   54
          46      62:   63    1:   13   41:   54
          47      60:   61   15:   27   42:   54
          48       2:    2   15:   27   41:   54
          49      60:   61   15:   27    1:   14
          50       3:    4   28:   40    1:   13
          51      64:   64   14:   27    1:   13
          52       3:    4   14:   27   14:   27
          53       7:   59   15:   27   15:   27
          54       3:    4   28:   40   14:   27
          55       1:    1   28:   41   14:   27
          56       2:    2   14:   27   28:   40
          57       5:    6   14:   27   28:   40
          58      64:   64   14:   27   14:   27
          59      64:   64   28:   40    1:   13
          60      62:   63   14:   27   41:   54
          61       5:    6   14:   27   41:   54
          62      62:   63   28:   40   41:   54
          63      64:   64   14:   27   41:   54
          64       1:    1   15:   27   41:   54
          65       7:   59   28:   41    1:   14
          66      62:   63   28:   40    1:   13
          67       2:    2   28:   40    1:   13
          68       5:    6   28:   40   14:   27
          69      62:   63   28:   40   14:   27
          70       2:    2   28:   41   14:   27
          71      64:   64   28:   40   14:   27
          72       7:   59   28:   41   28:   41
          73       5:    6   14:   27   14:   27
          74      62:   63   28:   40   28:   40
          75      64:   64   28:   40   28:   40
          76      60:   61   28:   41   42:   54
          77       7:   59   28:   41   42:   54
          78       5:    6   28:   40   41:   54
          79       1:    1   28:   41   41:   54
          80      64:   64    1:   13    1:   13
          81       3:    4   41:   54    1:   13
          82       5:    6   28:   40    1:   13
          83      64:   64   41:   54    1:   13
          84      62:   63   41:   54   14:   27
          85       7:   59   28:   41   15:   27
          86      60:   61   28:   41   15:   27
          87      64:   64    1:   13   28:   40
          88       3:    4   28:   40   28:   40
          89      60:   61   28:   41    1:   14
          90      62:   63   41:   54   28:   40
          91       5:    6   28:   40   28:   40
          92      64:   64   41:   54   28:   40
          93      60:   61   28:   41   28:   41
          94       3:    4   28:   40   41:   54
          95       2:    2   28:   41   41:   54
          96       1:    1   28:   40   28:   40
          97       7:   59   42:   54    1:   14
          98      62:   63   41:   54    1:   13
          99      64:   64   28:   40   41:   54
         100       1:    1   42:   54   14:   27
         101       3:    4   14:   27   28:   40
         102      60:   61   42:   54   15:   27
         103       2:    2   42:   54   14:   27
         104       7:   59   42:   54   28:   41
         105       5:    6   41:   54   28:   40
         106      64:   64   14:   27   28:   40
         107       1:    1   41:   54   28:   40
         108       5:    6   41:   54   41:   54
         109       7:   59   42:   54   42:   54
         110       3:    4    1:   13   41:   54
         111      60:   61   42:   54   42:   54
         112       2:    2   42:   54   41:   54
         113      60:   61   42:   54    1:   14
         114      64:   64    1:   13   41:   54
         115       1:    1   41:   54    1:   13
         116       3:    4   41:   54   14:   27
         117       7:   59   42:   54   15:   27
         118      64:   64   41:   54   14:   27
         119       2:    2   28:   40   28:   40
         120       3:    4   41:   54   28:   40
         121      60:   61   42:   54   28:   41
         122       2:    2   41:   54    1:   13
         123       2:    2   41:   54   28:   40
         124      62:   63   41:   54   41:   54
         125       3:    4   41:   54   41:   54
         126      60:   61   15:   27   28:   41
         127      64:   64   41:   54   41:   54
         128       1:    1   42:   54   41:   54
New grid distribution:   3
           1      11:   57    1:   14    1:   14
           2       8:   10    1:   14    1:   13
           3       4:    5    1:   14    1:   14
           4       6:    7    1:   13   14:   27
           5       1:    3    1:   14   15:   27
           6      63:   64    1:   14    1:   14
           7      58:   59    1:   14   15:   27
           8      11:   57    1:   14   28:   41
           9       1:    3    1:   14   28:   41
          10       8:   10    1:   14   28:   40
          11      63:   64    1:   14   28:   41
          12       4:    5   42:   54    1:   14
          13      11:   57    1:   14   42:   54
          14      60:   62    1:   14   42:   54
          15       6:    7   28:   41    1:   13
          16       4:    5    1:   14   42:   54
          17      60:   62    1:   14    1:   14
          18      60:   62   15:   27   15:   27
          19      58:   59    1:   14    1:   14
          20       6:    7   42:   54    1:   13
          21      11:   57    1:   14   15:   27
          22       8:   10    1:   13   14:   27
          23      63:   64    1:   14   15:   27
          24      58:   59    1:   14   28:   41
          25      60:   62    1:   14   28:   41
          26       4:    5    1:   14   28:   41
          27       6:    7    1:   14   28:   40
          28       1:    3    1:   14   42:   54
          29       1:    3    1:   14    1:   14
          30       8:   10    1:   13   41:   54
          31      63:   64    1:   14   42:   54
          32       4:    5   15:   27   15:   27
          33      11:   57   15:   27    1:   14
          34       1:    3   15:   27    1:   14
          35      58:   59    1:   14   42:   54
          36      58:   59   15:   27    1:   14
          37       1:    3   15:   27   15:   27
          38       6:    7   14:   27   14:   27
          39      58:   59   15:   27   15:   27
          40      11:   57   15:   27   28:   41
          41       8:   10   14:   27   14:   27
          42      60:   62   15:   27   28:   41
          43      63:   64   15:   27   28:   41
          44       4:    5   15:   27   28:   41
          45      11:   57   15:   27   42:   54
          46       1:    3   15:   27   42:   54
          47       6:    7   14:   27   41:   54
          48       4:    5   15:   27   42:   54
          49       1:    3   28:   41    1:   14
          50       8:   10   15:   27    1:   13
          51       4:    5   28:   41    1:   14
          52      63:   64   15:   27    1:   14
          53      11:   57   15:   27   15:   27
          54       6:    7    1:   14    1:   13
          55      63:   64   15:   27   15:   27
          56       1:    3   15:   27   28:   41
          57       1:    3   42:   54    1:   14
          58       8:   10   15:   27   28:   40
          59      58:   59   15:   27   28:   41
          60       6:    7   15:   27   28:   40
          61       8:   10   14:   27   41:   54
          62      60:   62   15:   27   42:   54
          63       4:    5    1:   14   15:   27
          64      58:   59   15:   27   42:   54
          65      11:   57   28:   41    1:   14
          66      58:   59   28:   41    1:   14
          67      63:   64   15:   27   42:   54
          68       8:   10   28:   40   14:   27
          69       1:    3   28:   41   15:   27
          70       6:    7    1:   13   41:   54
          71       6:    7   28:   40   14:   27
          72      11:   57   28:   41   28:   41
          73       1:    3   28:   41   28:   41
          74       8:   10   28:   41   28:   40
          75      63:   64   28:   41   28:   41
          76       6:    7   28:   41   28:   40
          77      11:   57   28:   41   42:   54
          78       8:   10   28:   40   41:   54
          79      63:   64   28:   41   42:   54
          80      58:   59   42:   54   15:   27
          81      60:   62   28:   41    1:   14
          82       8:   10   28:   41    1:   13
          83      63:   64   28:   41    1:   14
          84      58:   59   28:   41   15:   27
          85      11:   57   28:   41   15:   27
          86      60:   62   28:   41   15:   27
          87      63:   64   28:   41   15:   27
          88      58:   59   28:   41   28:   41
          89      60:   62   28:   41   28:   41
          90       1:    3   42:   54   15:   27
          91       4:    5   28:   41   28:   41
          92       6:    7   42:   54   28:   40
          93      60:   62    1:   14   15:   27
          94      60:   62   28:   41   42:   54
          95       6:    7   28:   40   41:   54
          96       6:    7   15:   27    1:   13
          97      11:   57   42:   54    1:   14
          98      60:   62   42:   54    1:   14
          99      58:   59   28:   41   42:   54
         100      58:   59   42:   54    1:   14
         101      60:   62   42:   54   15:   27
         102       6:    7   41:   54   14:   27
         103      63:   64   42:   54   15:   27
         104      11:   57   42:   54   28:   41
         105      60:   62   15:   27    1:   14
         106       1:    3   42:   54   28:   41
         107       4:    5   42:   54   28:   41
         108      58:   59   42:   54   28:   41
         109      11:   57   42:   54   42:   54
         110       1:    3   42:   54   42:   54
         111       6:    7   41:   54   41:   54
         112      58:   59   42:   54   42:   54
         113       8:   10   42:   54    1:   13
         114       4:    5   28:   41   15:   27
         115      63:   64   42:   54    1:   14
         116       8:   10   41:   54   14:   27
         117      11:   57   42:   54   15:   27
         118       4:    5   28:   41   42:   54
         119       4:    5   42:   54   15:   27
         120      60:   62   42:   54   28:   41
         121       1:    3   28:   41   42:   54
         122       8:   10   42:   54   28:   40
         123      63:   64   42:   54   28:   41
         124       4:    5   42:   54   42:   54
         125       8:   10   41:   54   41:   54
         126      60:   62   42:   54   42:   54
         127       4:    5   15:   27    1:   14
         128      63:   64   42:   54   42:   54
Setting up quadratic distribution...
ExtMesh (bp) on 0 =    93 x    54 x    54 =      271188
PhiOnMesh: Number of (b)points on node 0 =                10388
PhiOnMesh: nlist on node 0 =                42938
QETSC: Last update           = Dec 2, 2016
QETSC: Number of ranks       =         128
QETSC: Number of slices      =          16
QETSC: Number of ranks/slice =           8
QETSC: Number of evals/slice =  16.00
QETSC: Number of req. evals  =         256
QETSC: Number of rows (all)  =        1664
QETSC: Number of rows (max)  =          13
QETSC: Number of rows (min)  =          13
QETSC: Number of nonzeros    =     1024640
QETSC: Nonzero % (all)       =  37.01
QETSC: Nonzero % (max)       =  40.78
QETSC: Nonzero % (min)       =  33.23
QETSC: Density option        =           0
QETSC: Bin type given        =           7
QETSC: Bin buffer given      =   0.01
QETSC: Diff thresh           =   0.02
QETSC: Infinity type         =           2
QETSC: Inertia type          =           1
 QETSC: Shifts, inertias         =
      -INF     0
    -2.300     0
    -2.147     0
    -1.993     0
    -1.840     7
    -1.687    37
    -1.533    64
    -1.380    64
    -1.227    73
    -1.073   115
    -0.920   167
    -0.767   209
    -0.613   250
    -0.460   256
    -0.307   256
    -0.153   265
     0.000   289
 QETSc: Custers,iter,crange,npcmax,trial 1 0.919999999999999984E-01 34 3
-1.9057142857142855E+00
-1.7939999999999998E+00
-1.7020000000000000E+00
-1.6071604938271604E+00
-1.5390123456790121E+00
-1.2948148148148146E+00
-1.1865079365079365E+00
-1.0915873015873014E+00
-9.9666666666666659E-01
-9.0174603174603163E-01
-8.0682539682539678E-01
-7.1430894308943083E-01
-6.2081300813008122E-01
-5.3666666666666663E-01
-5.1111111111111107E-01
 QETSC: Bins             =
                   -INF
-1.9933333333333332E+00
-1.8833714285714283E+00
-1.7755999999999998E+00
-1.6830320987654321E+00
-1.5935308641975308E+00
-1.4901728395061726E+00
-1.2731534391534389E+00
-1.1675238095238094E+00
-1.0726031746031746E+00
-9.7768253968253960E-01
-8.8276190476190464E-01
-7.8832210607820363E-01
-6.9560975609756093E-01
-6.0398373983739828E-01
-5.3155555555555556E-01
-4.5999999999999996E-01
QETSC: Started iter            1
QETSC: Bin type used         =           7
QETSC: Buffer used           =   0.0000000000000000E+00
QETSC: EPS interval          =      -INF,    -0.460
QETSC: Inertia type          =           1
SLEPc: EPSSolve time = 0 2.476e-06
SLEPc: EPSSolve time = 6 2.316e-06
SLEPc: EPSSolve time = 5 2.403e-06
SLEPc: EPSSolve time = 15 2.491e-06
SLEPc: EPSSolve time = 1 1.722e+00
SLEPc: EPSSolve time = 14 2.649e+00
SLEPc: EPSSolve time = 8 3.077e+00
SLEPc: EPSSolve time = 3 3.303e+00
SLEPc: EPSSolve time = 4 3.576e+00
SLEPc: EPSSolve time = 2 3.817e+00
SLEPc: EPSSolve time = 13 3.842e+00
SLEPc: EPSSolve time = 7 4.112e+00
SLEPc: EPSSolve time = 12 4.297e+00
SLEPc: EPSSolve time = 11 4.818e+00
SLEPc: EPSSolve time = 9 4.944e+00
SLEPc: EPSSolve time = 10 7.231e+00
 QETSC: Eigenvalues         =
-1.8990629079746855E+00
-1.8776497417750675E+00
-1.8776497417750420E+00
-1.8776497417749713E+00
-1.8776497417748290E+00
-1.8776497412446564E+00
-1.8776497412446480E+00
-1.8359356768256849E+00
-1.8359356768256745E+00
-1.8359356759474801E+00
-1.8359356759474528E+00
-1.8359356759473013E+00
-1.8359356759472878E+00
-1.8159566101255986E+00
-1.8159566101255225E+00
-1.8159566091378356E+00
-1.8158717903413297E+00
-1.8158717903411492E+00
-1.8158717891154461E+00
-1.7598581988865187E+00
-1.7598581988864637E+00
-1.7598581988864463E+00
-1.7598581988864113E+00
-1.7598581985004538E+00
-1.7598581985004225E+00
-1.7597836534749098E+00
-1.7597836534749050E+00
-1.7597836534092592E+00
-1.7597836534092546E+00
-1.7597836534092206E+00
-1.7597836534091975E+00
-1.7293050945425812E+00
-1.7293050945423158E+00
-1.7293050945423003E+00
-1.7293050945419519E+00
-1.7293050941725328E+00
-1.7293050941725159E+00
-1.6846925891110627E+00
-1.6846925891105187E+00
-1.6846925890901669E+00
-1.6846603729371477E+00
-1.6846603724662326E+00
-1.6846603724657454E+00
-1.6807872725359114E+00
-1.6807872725357795E+00
-1.6807872725354673E+00
-1.6807872725353679E+00
-1.6807872722296313E+00
-1.6807872722296309E+00
-1.6807829426626286E+00
-1.6807829426626271E+00
-1.6807829424813028E+00
-1.6807829424808691E+00
-1.6807829424808556E+00
-1.6807829424806493E+00
-1.6766989137355104E+00
-1.6766776369864345E+00
-1.6766776361346434E+00
-1.6422271208955923E+00
-1.6422271208955916E+00
-1.6422271205301193E+00
-1.6422271205301175E+00
-1.6422271205297887E+00
-1.6422271205297825E+00
-1.2609631357251674E+00
-1.2608420968928897E+00
-1.2608420791200279E+00
-1.2266931255039080E+00
-1.2266931255031950E+00
-1.2266931255029623E+00
-1.2266931255014359E+00
-1.2266931184260677E+00
-1.2266931184260450E+00
-1.2266036483519014E+00
-1.2266036483518108E+00
-1.2266036321937275E+00
-1.2266036321931524E+00
-1.2266036321920137E+00
-1.2266036321916862E+00
-1.2188460704078365E+00
-1.2188460704077300E+00
-1.2188460704064319E+00
-1.2188460704063804E+00
-1.2188460639133394E+00
-1.2188460639132819E+00
-1.1736649132372985E+00
-1.1736649132348123E+00
-1.1736649049648311E+00
-1.1735750329300489E+00
-1.1735750075555416E+00
-1.1735750075525830E+00
-1.1731935013987524E+00
-1.1731935013978629E+00
-1.1731935013973285E+00
-1.1731935013960679E+00
-1.1731934942830391E+00
-1.1731934942830371E+00
-1.0941687224957377E+00
-1.0941687224957353E+00
-1.0941687141280276E+00
-1.0941687141280119E+00
-1.0941687141272274E+00
-1.0941687141272152E+00
-1.0892258211506318E+00
-1.0892258211506149E+00
-1.0892258211501629E+00
-1.0892258211501553E+00
-1.0892258154202916E+00
-1.0892258154202881E+00
-1.0891193251508071E+00
-1.0891193251508045E+00
-1.0891193182385288E+00
-1.0891193182385199E+00
-1.0891193182379648E+00
-1.0891193182379557E+00
-1.0486869812724073E+00
-1.0486869812719175E+00
-1.0486869699985559E+00
-1.0485607749582435E+00
-1.0485607749579078E+00
-1.0485607660724379E+00
-9.9171983283105347E-01
-9.9171983282908993E-01
-9.9171982236610523E-01
-9.9157454613151585E-01
-9.9157454613000784E-01
-9.9157453729501865E-01
-9.8382135932971804E-01
-9.8382135932959713E-01
-9.8382135932942694E-01
-9.8382135932922354E-01
-9.8382134521490516E-01
-9.8382134521490405E-01
-9.8373074284071604E-01
-9.8373074284070050E-01
-9.8373074284013473E-01
-9.8373074284000828E-01
-9.8373074252059822E-01
-9.8373074252059722E-01
-9.5468217644469688E-01
-9.3673021536835788E-01
-9.3673019344782094E-01
-9.3665274240003094E-01
-9.3485086720618638E-01
-9.3485086720617616E-01
-9.3485086720578170E-01
-9.3485086720576016E-01
-9.3485085296349812E-01
-9.3485085296349069E-01
-9.3480390926894819E-01
-9.3480390926892309E-01
-9.3480389915477002E-01
-9.3480389915474371E-01
-9.3480389915424789E-01
-9.3480389915422790E-01
-9.2653214744642687E-01
-9.2653214744642609E-01
-9.2653213596493478E-01
-9.2653213596491701E-01
-9.2653213596316009E-01
-9.2653213596315465E-01
-9.2548937380931429E-01
-9.2548937380877305E-01
-9.2548937380813745E-01
-9.2548937380697782E-01
-9.2548937374219542E-01
-9.2548937374219253E-01
-9.1319758180344413E-01
-9.1319758180344079E-01
-9.1319756726697299E-01
-9.1319756726674506E-01
-9.1319756726661949E-01
-9.1319756726605050E-01
-8.6891514933096059E-01
-8.6891514933095682E-01
-8.6891514914817269E-01
-8.6891514914812296E-01
-8.6891514914735046E-01
-8.6891514914730283E-01
-8.4996053066537181E-01
-8.4996053066444743E-01
-8.4996052314927006E-01
-8.4988170534894092E-01
-8.4988166873032034E-01
-8.4988166872896054E-01
-8.4652830053215189E-01
-8.4652830053165073E-01
-8.4652830053126626E-01
-8.4652830053076100E-01
-8.4652828625492749E-01
-8.4652828625492527E-01
-8.4184426064872309E-01
-8.4184426064749796E-01
-8.4184426054253592E-01
-8.4182613597295153E-01
-8.4182613597181777E-01
-8.4182613555927133E-01
-8.1396040407430026E-01
-8.1396040407397474E-01
-8.1396040407217940E-01
-8.1396040407140491E-01
-8.1396039178309709E-01
-8.1396039178309543E-01
-7.7314435063048115E-01
-7.7314435063047848E-01
-7.7314433737403554E-01
-7.7314433737354515E-01
-7.7314433737338184E-01
-7.7314433737186561E-01
-7.6566079674240084E-01
-7.6566079674239962E-01
-7.6566079659490072E-01
-7.6566079659490027E-01
-7.6566079659334307E-01
-7.6566079659334185E-01
-7.6564340753128768E-01
-7.6564340753127946E-01
-7.6564340753089266E-01
-7.6564340753088578E-01
-7.6564340733727632E-01
-7.6564340733727576E-01
-7.3500415761674109E-01
-7.3500414145459236E-01
-7.2331350282645646E-01
-7.2331350282323670E-01
-7.2331350282320872E-01
-7.2331350282222573E-01
-7.2331350226476221E-01
-7.2331350226476154E-01
-6.6233106880956882E-01
-6.6233106821374166E-01
-6.6233106821286702E-01
-6.6231228441554091E-01
-6.6231228408024923E-01
-6.6231228408013010E-01
-6.5585371775495671E-01
-6.5585371775495660E-01
-6.5585371717805840E-01
-6.5585371717801488E-01
-6.5585371717781871E-01
-6.5585371717689056E-01
-6.5583408614429595E-01
-6.5583408614429528E-01
-6.5583408585523095E-01
-6.5583408585476344E-01
-6.5583408585407210E-01
-6.5583408585354308E-01
-6.4898019787973060E-01
-6.4898019713624200E-01
-6.4894978466577724E-01
-6.0190582122585534E-01
-6.0190582122585456E-01
-6.0190582122456115E-01
-6.0190582122456049E-01
-6.0190582086615052E-01
-6.0190582086615008E-01
QETSC: Iter time (min)       =     1  10.78
QETSC: Iter time (max)       =     1  10.78
QETSC: Iter time (avg)       =     1  10.78
QETSC: Bin scores            =     1   2.12   0.16
QETSC: Empty bins            =     1           5
QETSC: Max,min eigs          =     1          34           1
QETSC: Max,min dists         =     1 9.427E-02 2.078E-03
QETSC: Bad bins              =     1           8           8
QETSC: Max neigs bin         =     1          11
QETSC: Max,min dist bins     =     1           2          15
QETSC: Num. of conv. evals   =     1         256
QETSC: Eigenvalue (1)        =     1  -1.8990629079746855E+00
QETSC: Eigenvalue (nocc)     =     1  -6.0190582086615008E-01
QETSC: Max differrence       =     1   1.8990629079746855E+00
QETSC: Safe iteration        =     1      F
QETSC: Finished iter         =           1
 *****************************************************************

siesta: Program's energy decomposition (eV):
siesta: Ebs     =     -7870.928862
siesta: Eions   =     34808.632627
siesta: Ena     =      5967.489810
siesta: Ekin    =     13943.623183
siesta: Enl     =     -1203.570839
siesta: DEna    =        -0.000156
siesta: DUscf   =         0.000000
siesta: DUext   =         0.000000
siesta: Exc     =     -6682.477088
siesta: eta*DQ  =         0.000000
siesta: Emadel  =         0.000000
siesta: Emeta   =         0.000000
siesta: Emolmec =         0.000000
siesta: Ekinion =         0.000000
siesta: Eharris =    -22855.459788
siesta: Etot    =    -22783.567717
siesta: FreeEng =    -22783.567717
timer: Routine,Calls,Time,% =    IterSCF     1      12.180  31.14
 QETSC: Shifts, inertias         =
      -INF     0
    -2.300     0
    -2.147     0
    -1.993     0
    -1.840     0
    -1.687     0
    -1.533     7
    -1.380    37
    -1.227    64
    -1.073    64
    -0.920    85
    -0.767   115
    -0.613   158
    -0.460   221
    -0.307   250
    -0.153   256
     0.000   265
 QETSc: Custers,iter,crange,npcmax,trial 2 0.102222222222222214 34 2
-1.5990476190476188E+00
-1.4771111111111110E+00
-1.3743209876543210E+00
-1.2720987654320988E+00
-1.2323456790123455E+00
-9.7841269841269829E-01
-8.7399999999999989E-01
-7.7177777777777767E-01
-6.6682170542635655E-01
-5.6708994708994709E-01
-4.8433862433862429E-01
-3.8068965517241377E-01
-2.8111111111111109E-01
-2.0444444444444443E-01
-1.5333333333333332E-01
 QETSC: Bins             =
                   -INF
-1.6866666666666665E+00
-1.5746603174603173E+00
-1.4565530864197531E+00
-1.3538765432098765E+00
-1.2641481481481480E+00
-1.1815590828924161E+00
-9.5753015873015856E-01
-8.5355555555555540E-01
-7.5078656330749349E-01
-6.4687535375907468E-01
-5.5053968253968255E-01
-4.6360883050538221E-01
-3.6077394636015325E-01
-2.6577777777777778E-01
-1.9422222222222221E-01
-1.5333333333333332E-01
QETSC: Started iter            2
QETSC: Bin type used         =           7
QETSC: Buffer used           =   0.0000000000000000E+00
QETSC: EPS interval          =      -INF,    -0.153
QETSC: Inertia type          =           1
SLEPc: EPSSolve time = 15 2.375e-06
SLEPc: EPSSolve time = 0 2.061e-06
SLEPc: EPSSolve time = 5 2.036e-06
SLEPc: EPSSolve time = 14 2.380e-06
SLEPc: EPSSolve time = 1 1.817e+00
SLEPc: EPSSolve time = 6 1.886e+00
SLEPc: EPSSolve time = 13 1.917e+00
SLEPc: EPSSolve time = 2 2.834e+00
SLEPc: EPSSolve time = 8 2.996e+00
SLEPc: EPSSolve time = 12 3.195e+00
SLEPc: EPSSolve time = 3 3.335e+00
SLEPc: EPSSolve time = 4 3.705e+00
SLEPc: EPSSolve time = 7 4.332e+00
SLEPc: EPSSolve time = 11 5.058e+00
SLEPc: EPSSolve time = 10 5.324e+00
SLEPc: EPSSolve time = 9 6.666e+00
 QETSC: Eigenvalues         =
-1.6001343228820859E+00
-1.5765597825083288E+00
-1.5765597825081248E+00
-1.5765597793019286E+00
-1.5765597792966608E+00
-1.5765597792918262E+00
-1.5765597792873842E+00
-1.5302916158326465E+00
-1.5302916158317912E+00
-1.5302916158273079E+00
-1.5302916158252708E+00
-1.5302916103633102E+00
-1.5302916103627611E+00
-1.5078627432596343E+00
-1.5078627113801562E+00
-1.5078627113780447E+00
-1.5077979433853335E+00
-1.5077979433834559E+00
-1.5077979259109104E+00
-1.4438158475208431E+00
-1.4438158475199847E+00
-1.4438158319923677E+00
-1.4438158319899290E+00
-1.4438158319883279E+00
-1.4438158319868639E+00
-1.4437644243209504E+00
-1.4437644243185874E+00
-1.4437644243162953E+00
-1.4437644243155705E+00
-1.4437644098763034E+00
-1.4437644098757141E+00
-1.4073071703554629E+00
-1.4073071703542439E+00
-1.4073071649454034E+00
-1.4073071649431121E+00
-1.4073071649391289E+00
-1.4073071649389619E+00
-1.3536999635396030E+00
-1.3536999635375817E+00
-1.3536999356072157E+00
-1.3536847552906914E+00
-1.3536847327035060E+00
-1.3536847327015458E+00
-1.3473695015875997E+00
-1.3473695015836786E+00
-1.3473695015831677E+00
-1.3473695015793705E+00
-1.3473694754685455E+00
-1.3473694754683632E+00
-1.3473322604062519E+00
-1.3473322604058648E+00
-1.3473322344245093E+00
-1.3473322344232859E+00
-1.3473322344142613E+00
-1.3473322344101661E+00
-1.3404844727231811E+00
-1.3404124712712895E+00
-1.3404124315492822E+00
-1.2979793528622818E+00
-1.2979793528598660E+00
-1.2979793528552503E+00
-1.2979793528536412E+00
-1.2979793486314262E+00
-1.2979793486308291E+00
-9.8456672790273037E-01
-9.8448483784328511E-01
-9.8448471608556720E-01
-9.4269980384884888E-01
-9.4269980384634877E-01
-9.4269980384099172E-01
-9.4269980383877661E-01
-9.4269971207185377E-01
-9.4269971207160452E-01
-9.4262858023991569E-01
-9.4262858023645801E-01
-9.4262858023591167E-01
-9.4262858023280693E-01
-9.4262847949495365E-01
-9.4262847949483597E-01
-9.3550104477618945E-01
-9.3550104477572105E-01
-9.3550088862837022E-01
-9.3550088862677228E-01
-9.3550088862341840E-01
-9.3550088862315861E-01
-8.7884114353532872E-01
-8.7884114353515763E-01
-8.7884096709008652E-01
-8.7884096708910953E-01
-8.7884096708473536E-01
-8.7884096708422033E-01
-8.7618999296915823E-01
-8.7618999296791533E-01
-8.7618982808334767E-01
-8.7612771137622436E-01
-8.7612771137384871E-01
-8.7612753196780080E-01
-7.9880605796628001E-01
-7.9880605796585280E-01
-7.9880605796263182E-01
-7.9880605796144510E-01
-7.9880587814630843E-01
-7.9880587814599235E-01
-7.8002214324720909E-01
-7.8002214324462549E-01
-7.8002214324307895E-01
-7.8002214324161079E-01
-7.8002210668141903E-01
-7.8002210668121097E-01
-7.7996138658976610E-01
-7.7996138658710290E-01
-7.7996138658623826E-01
-7.7996138658475578E-01
-7.7996134740414336E-01
-7.7996134740392442E-01
-7.4785557754187171E-01
-7.4785539220502395E-01
-7.4785539220284658E-01
-7.4764919619283765E-01
-7.4764896663900315E-01
-7.4764896663804969E-01
-7.4454519699987121E-01
-7.1237607830714944E-01
-7.1237607830604222E-01
-7.1237607826542282E-01
-7.1237607826100735E-01
-7.1237607825695115E-01
-7.1237607825231986E-01
-6.7187848996177124E-01
-6.7187827622893392E-01
-6.7187827622884577E-01
-6.7170796090631246E-01
-6.7170771743265933E-01
-6.7170771743112789E-01
-6.6574996917735274E-01
-6.6574996917718765E-01
-6.6574984437865681E-01
-6.6574984437455575E-01
-6.6574984437323181E-01
-6.6574984437053475E-01
-6.6559093991510254E-01
-6.6559093991488905E-01
-6.6559077468701067E-01
-6.6559077468538153E-01
-6.6559077467843630E-01
-6.6559077467567884E-01
-6.4915083018372355E-01
-6.4915083018312925E-01
-6.4915083017908992E-01
-6.4915083017754260E-01
-6.4915083001314178E-01
-6.4915083001274398E-01
-6.1835031621627645E-01
-6.1835031621510084E-01
-6.1835030161353677E-01
-6.1830940095838516E-01
-6.1830938577013750E-01
-6.1830938576900851E-01
-6.1235227497028732E-01
-6.1235227496991251E-01
-6.1235223186959309E-01
-6.1235223186688292E-01
-6.1235223186613508E-01
-6.1235223186426579E-01
-6.1226497718217432E-01
-6.1226497718154338E-01
-6.1226490878908280E-01
-6.1226490878645179E-01
-6.1226490878570783E-01
-6.1226490878354733E-01
-6.0651957948180113E-01
-6.0651940829793294E-01
-6.0632411761012939E-01
-5.9504840826360617E-01
-5.9504840826269345E-01
-5.9504840826112770E-01
-5.9504840825989991E-01
-5.9504814735926670E-01
-5.9504814735887368E-01
-5.8071218252063372E-01
-5.8071218251977896E-01
-5.8071218251426215E-01
-5.8071218251372025E-01
-5.8071187213054887E-01
-5.8071187213031594E-01
-5.2890480798934347E-01
-5.2890480798867134E-01
-5.2890480798557005E-01
-5.2890480798369810E-01
-5.2890479194849349E-01
-5.2890479194814222E-01
-5.2886798026269632E-01
-5.2886798026197135E-01
-5.2886796418536253E-01
-5.2886796418331139E-01
-5.2886796418230808E-01
-5.2886796417969739E-01
-5.1098822792960663E-01
-5.1098822792913279E-01
-5.1098791003670463E-01
-5.1098791003546817E-01
-5.1098791003469535E-01
-5.1098791003293986E-01
-5.1014993432918410E-01
-5.1014993432641920E-01
-5.1014961111206480E-01
-5.1011900571595581E-01
-5.1011900571470759E-01
-5.1011865530434886E-01
-4.7564735759722265E-01
-4.7564735759705812E-01
-4.7564735660307883E-01
-4.7564735659922386E-01
-4.7564735659611251E-01
-4.7564735659506990E-01
-4.6824316590715631E-01
-4.6824316590698839E-01
-4.6824283466297500E-01
-4.6824283466103345E-01
-4.6824283465711386E-01
-4.6824283465494498E-01
-4.2085181174797798E-01
-4.2085181174605202E-01
-4.2085181174268804E-01
-4.2085181174030406E-01
-4.2085143123737712E-01
-4.2085143123715574E-01
-3.9516291025698469E-01
-3.9516291025509737E-01
-3.9516289096559243E-01
-3.9514596359516535E-01
-3.9514594612390008E-01
-3.9514594612133486E-01
-3.8306834952968288E-01
-3.8306834952793034E-01
-3.8306834952519375E-01
-3.8306834952359614E-01
-3.8306832921570733E-01
-3.8306832921546285E-01
-3.8304740659092634E-01
-3.8304740659058983E-01
-3.8304738814896100E-01
-3.8304738814755040E-01
-3.8304738813898143E-01
-3.8304738813618272E-01
-3.7422702490465787E-01
-3.7422647790706348E-01
-3.6916875363561097E-01
-3.6912885715184762E-01
-3.6912883074116098E-01
-2.9580780787358235E-01
-2.9580780787298616E-01
-2.9580780697092224E-01
-2.9580780696863984E-01
-2.9580780696426134E-01
-2.9580780696295139E-01
QETSC: Iter time (min)       =     2   9.91
QETSC: Iter time (max)       =     2   9.92
QETSC: Iter time (avg)       =     2   9.91
QETSC: Bin scores            =     2   2.36   0.20
QETSC: Empty bins            =     2           5
QETSC: Max,min eigs          =     2          37           3
QETSC: Max,min dists         =     2 1.970E-01 1.766E-04
QETSC: Bad bins              =     2          10          10
QETSC: Max neigs bin         =     2          10
QETSC: Max,min dist bins     =     2           7           5
QETSC: Num. of conv. evals   =     2         256
QETSC: Eigenvalue (1)        =     2  -1.6001343228820859E+00
QETSC: Eigenvalue (nocc)     =     2  -2.9580780696295139E-01
QETSC: Max differrence       =     2   3.4424777189895339E-01
QETSC: Safe iteration        =     2      F
QETSC: Finished iter         =           2
 *****************************************************************
 QETSC: Shifts, inertias         =
      -INF     0
    -2.300     0
    -2.147     0
    -1.993     0
    -1.840     0
    -1.687     1
    -1.533    31
    -1.380    64
    -1.227    64
    -1.073    67
    -0.920    97
    -0.767   146
    -0.613   197
    -0.460   250
    -0.307   256
    -0.153   256
     0.000   277
 QETSc: Custers,iter,crange,npcmax,trial 3 0.919999999999999984E-01 34 3
-1.8399999999999999E+00
-1.5997777777777777E+00
-1.5054545454545454E+00
-1.4125252525252525E+00
-1.3846464646464645E+00
-1.1755555555555555E+00
-1.0375555555555556E+00
-9.4044444444444442E-01
-8.4489795918367339E-01
-7.5163398692810457E-01
-6.5843137254901951E-01
-5.6415094339622640E-01
-4.7157232704402513E-01
-3.8333333333333330E-01
-3.5777777777777775E-01
 QETSC: Bins             =
                   -INF
-1.8399999999999999E+00
-1.7919555555555555E+00
-1.5809131313131313E+00
-1.4868686868686869E+00
-1.4069494949494949E+00
-1.3428282828282827E+00
-1.1479555555555554E+00
-1.0181333333333333E+00
-9.2133514739229017E-01
-8.2624516473255960E-01
-7.3299346405228760E-01
-6.3957528671846087E-01
-5.4563522012578614E-01
-4.5392452830188679E-01
-3.7822222222222218E-01
-3.0666666666666664E-01
QETSC: Started iter            3
QETSC: Bin type used         =           7
QETSC: Buffer used           =   0.0000000000000000E+00
QETSC: EPS interval          =      -INF,    -0.307
QETSC: Inertia type          =           1
SLEPc: EPSSolve time = 0 2.404e-06
SLEPc: EPSSolve time = 15 2.440e-06
SLEPc: EPSSolve time = 5 1.966e-06
SLEPc: EPSSolve time = 6 2.271e-06
SLEPc: EPSSolve time = 1 2.074e-06
SLEPc: EPSSolve time = 14 1.821e+00
SLEPc: EPSSolve time = 7 2.058e+00
SLEPc: EPSSolve time = 8 2.895e+00
SLEPc: EPSSolve time = 4 2.959e+00
SLEPc: EPSSolve time = 3 2.991e+00
SLEPc: EPSSolve time = 2 3.330e+00
SLEPc: EPSSolve time = 13 3.869e+00
SLEPc: EPSSolve time = 9 4.385e+00
SLEPc: EPSSolve time = 10 4.811e+00
SLEPc: EPSSolve time = 11 7.436e+00
SLEPc: EPSSolve time = 12 7.846e+00
 QETSC: Eigenvalues         =
-1.7038502952999606E+00
-1.6811222038477296E+00
-1.6811222038471614E+00
-1.6811222021742589E+00
-1.6811222021731824E+00
-1.6811222021707173E+00
-1.6811222021697376E+00
-1.6367035564847048E+00
-1.6367035564835488E+00
-1.6367035564833736E+00
-1.6367035564823633E+00
-1.6367035537701060E+00
-1.6367035537698988E+00
-1.6153195581728548E+00
-1.6153195481583902E+00
-1.6153195481576241E+00
-1.6152323534228277E+00
-1.6152323534224038E+00
-1.6152323505750039E+00
-1.5547232052261315E+00
-1.5547232052259568E+00
-1.5547232005731269E+00
-1.5547232005723526E+00
-1.5547232005710550E+00
-1.5547232005704414E+00
-1.5546491576626629E+00
-1.5546491576611505E+00
-1.5546491576598065E+00
-1.5546491576587576E+00
-1.5546491533939222E+00
-1.5546491533935725E+00
-1.5209345760578183E+00
-1.5209345760573307E+00
-1.5209345735751036E+00
-1.5209345735744151E+00
-1.5209345735739890E+00
-1.5209345735727775E+00
-1.4715185176267045E+00
-1.4715185118860592E+00
-1.4715185118852507E+00
-1.4715012710344031E+00
-1.4715012710340174E+00
-1.4715012634689439E+00
-1.4664336829754197E+00
-1.4664336829743174E+00
-1.4664336829732121E+00
-1.4664336829717883E+00
-1.4664336765857660E+00
-1.4664336765848833E+00
-1.4664282428342226E+00
-1.4664282428334925E+00
-1.4664282359511720E+00
-1.4664282359506748E+00
-1.4664282359489256E+00
-1.4664282359481795E+00
-1.4610147007333825E+00
-1.4609894859114456E+00
-1.4609894752325705E+00
-1.4224369516805238E+00
-1.4224369516803392E+00
-1.4224369516777069E+00
-1.4224369516767128E+00
-1.4224369495850400E+00
-1.4224369495848004E+00
-1.0735583407156324E+00
-1.0734588204641635E+00
-1.0734587525870083E+00
-1.0353368195179862E+00
-1.0353368195177388E+00
-1.0353368195166961E+00
-1.0353368195162671E+00
-1.0353367513803566E+00
-1.0353367513797223E+00
-1.0352579986854498E+00
-1.0352579986837347E+00
-1.0352579986830794E+00
-1.0352579986818071E+00
-1.0352579407814269E+00
-1.0352579407808153E+00
-1.0278324523270741E+00
-1.0278324523268958E+00
-1.0278323547904376E+00
-1.0278323547902977E+00
-1.0278323547885140E+00
-1.0278323547879418E+00
-9.7624508657524689E-01
-9.7624508657486408E-01
-9.7624497212166106E-01
-9.7624497212096906E-01
-9.7624497212008277E-01
-9.7624497211930683E-01
-9.7551485039798425E-01
-9.7551485039750119E-01
-9.7551473340051775E-01
-9.7544356686844724E-01
-9.7544356686684108E-01
-9.7544346446991514E-01
-8.9426338980473541E-01
-8.9426338980460696E-01
-8.9426338980269859E-01
-8.9426338980246856E-01
-8.9426327719900967E-01
-8.9426327719886067E-01
-8.8411654736475853E-01
-8.8411654736431944E-01
-8.8411654736302159E-01
-8.8411654736278067E-01
-8.8411652377775540E-01
-8.8411652377764904E-01
-8.8402930435094462E-01
-8.8402930435036953E-01
-8.8402930434929183E-01
-8.8402930434888261E-01
-8.8402928640858103E-01
-8.8402928640845724E-01
-8.4553542302286588E-01
-8.4553529953606732E-01
-8.4553529953510875E-01
-8.4535978527927169E-01
-8.4535964516402939E-01
-8.4535964516373308E-01
-8.1725007315733755E-01
-7.8625938208948898E-01
-7.8625938208746937E-01
-7.8625938208545387E-01
-7.8625938208514345E-01
-7.8625938207278911E-01
-7.8625938207187462E-01
-7.8012529759000404E-01
-7.8012515653487668E-01
-7.8012515653406056E-01
-7.7995981557795624E-01
-7.7995966292560526E-01
-7.7995966292461083E-01
-7.7138692820398869E-01
-7.7138692820338850E-01
-7.7138684707743144E-01
-7.7138684707661054E-01
-7.7138684707528216E-01
-7.7138684707476479E-01
-7.7125391993268000E-01
-7.7125391993220460E-01
-7.7125381564237494E-01
-7.7125381564185702E-01
-7.7125381564017981E-01
-7.7125381563975570E-01
-7.2570667094442132E-01
-7.2570667094419039E-01
-7.2570667091387409E-01
-7.2570667091321328E-01
-7.2570667091225949E-01
-7.2570667091177754E-01
-7.1982250135643500E-01
-7.1982250135618242E-01
-7.1982248248858627E-01
-7.1982248248791281E-01
-7.1982248248703928E-01
-7.1982248248665048E-01
-7.1974660682243008E-01
-7.1974660682228242E-01
-7.1974656496779699E-01
-7.1974656496711931E-01
-7.1974656496572176E-01
-7.1974656496539835E-01
-7.1739505309805529E-01
-7.1739494695374673E-01
-7.1724239931666889E-01
-7.0841421638750712E-01
-7.0841421638715596E-01
-7.0841421638672208E-01
-7.0841421638626867E-01
-7.0841404995110946E-01
-7.0841404995093515E-01
-6.9643072478748858E-01
-6.9643072478676271E-01
-6.9643072286360652E-01
-6.9640598159540312E-01
-6.9640597970425699E-01
-6.9640597970336138E-01
-6.9262889478171752E-01
-6.9262889478112533E-01
-6.9262889478084400E-01
-6.9262889478009815E-01
-6.9262870159645495E-01
-6.9262870159583578E-01
-6.2542481326672650E-01
-6.2542481326530197E-01
-6.2542459508816717E-01
-6.2534876837369213E-01
-6.2534876837288589E-01
-6.2534856530383864E-01
-6.2420809041650105E-01
-6.2420809041628944E-01
-6.2420788869641086E-01
-6.2420788869615806E-01
-6.2420788869479149E-01
-6.2420788869417954E-01
-6.1254034083863351E-01
-6.1254034083814202E-01
-6.1254034083641806E-01
-6.1254034083603104E-01
-6.1254033884585701E-01
-6.1254033884556858E-01
-6.1252132230328782E-01
-6.1252132230319112E-01
-6.1252132034112317E-01
-6.1252132034086015E-01
-6.1252132034025031E-01
-6.1252132033938333E-01
-5.8705855077494040E-01
-5.8705855077445734E-01
-5.8705834096117737E-01
-5.8705834095994391E-01
-5.8705834095953657E-01
-5.8705834095837006E-01
-5.6409755314462451E-01
-5.6409755314418653E-01
-5.6409755311628174E-01
-5.6409755311291399E-01
-5.6409755311217979E-01
-5.6409755311110155E-01
-5.4185784582900065E-01
-5.4185784582805141E-01
-5.4185784582716090E-01
-5.4185784582601138E-01
-5.4185760689827533E-01
-5.4185760689768447E-01
-4.9923429681934806E-01
-4.9923395352739747E-01
-4.9260924775283682E-01
-4.9260924421483987E-01
-4.9260924421345420E-01
-4.9260572310874728E-01
-4.9260572310812017E-01
-4.9260571966444305E-01
-4.8340615127307796E-01
-4.8340615127228947E-01
-4.8340614762713274E-01
-4.8340614762647688E-01
-4.8340614762526085E-01
-4.8340614762463502E-01
-4.8340427609536946E-01
-4.8340427609451386E-01
-4.8340427609288933E-01
-4.8340427609134579E-01
-4.8340427249387019E-01
-4.8340427249318746E-01
-4.7326734863866959E-01
-4.7326672829046229E-01
-4.7326672322544372E-01
-4.1432926553888039E-01
-4.1432926553875482E-01
-4.1432926553580640E-01
-4.1432926553502308E-01
-4.1432926541693649E-01
-4.1432926541668447E-01
QETSC: Iter time (min)       =     3  11.06
QETSC: Iter time (max)       =     3  11.07
QETSC: Iter time (avg)       =     3  11.06
QETSC: Bin scores            =     3   2.74   0.41
QETSC: Empty bins            =     3           6
QETSC: Max,min eigs          =     3          39          12
QETSC: Max,min dists         =     3 8.811E-02 3.777E-03
QETSC: Bad bins              =     3           3           3
QETSC: Max neigs bin         =     3          12
QETSC: Max,min dist bins     =     3           3          14
QETSC: Num. of conv. evals   =     3         256
QETSC: Eigenvalue (1)        =     3  -1.7038502952999606E+00
QETSC: Eigenvalue (nocc)     =     3  -4.1432926541668447E-01
QETSC: Max differrence       =     3   1.2445760095397129E-01
QETSC: Safe iteration        =     3      F
QETSC: Finished iter         =           3
 *****************************************************************
 QETSC: Shifts, inertias         =
      -INF     0
    -2.300     0
    -2.147     0
    -1.993     0
    -1.840     0
    -1.687     7
    -1.533    37
    -1.380    64
    -1.227    64
    -1.073    67
    -0.920   103
    -0.767   146
    -0.613   215
    -0.460   250
    -0.307   256
    -0.153   256
     0.000   283
 QETSc: Custers,iter,crange,npcmax,trial 4 0.102222222222222214 34 2
-1.7523809523809522E+00
-1.6304444444444444E+00
-1.5276543209876543E+00
-1.4254320987654321E+00
-1.3856790123456788E+00
-1.1755555555555555E+00
-1.0264814814814813E+00
-9.2425925925925922E-01
-8.2015503875968987E-01
-7.2444444444444434E-01
-6.4888888888888885E-01
-5.4761904761904756E-01
-4.5999999999999996E-01
-3.5777777777777775E-01
-3.0666666666666664E-01
 QETSC: Bins             =
                   -INF
-1.8399999999999999E+00
-1.7279936507936506E+00
-1.6098864197530864E+00
-1.5072098765432098E+00
-1.4174814814814813E+00
-1.3436543209876541E+00
-1.1457407407407407E+00
-1.0060370370370368E+00
-9.0343841515934531E-01
-8.0101291989664081E-01
-7.0933333333333326E-01
-6.2863492063492055E-01
-5.3009523809523806E-01
-4.3955555555555553E-01
-3.4755555555555551E-01
-3.0666666666666664E-01
QETSC: Started iter            4
QETSC: Bin type used         =           7
QETSC: Buffer used           =   0.0000000000000000E+00
QETSC: EPS interval          =      -INF,    -0.307
QETSC: Inertia type          =           1
SLEPc: EPSSolve time = 15 2.410e-06
SLEPc: EPSSolve time = 0 2.604e-06
SLEPc: EPSSolve time = 5 2.430e-06
SLEPc: EPSSolve time = 6 2.411e-06
SLEPc: EPSSolve time = 14 1.994e-06
SLEPc: EPSSolve time = 1 1.753e+00
SLEPc: EPSSolve time = 2 2.899e+00
SLEPc: EPSSolve time = 11 3.121e+00
SLEPc: EPSSolve time = 3 3.313e+00
SLEPc: EPSSolve time = 7 3.446e+00
SLEPc: EPSSolve time = 4 3.701e+00
SLEPc: EPSSolve time = 13 4.019e+00
SLEPc: EPSSolve time = 12 4.118e+00
SLEPc: EPSSolve time = 10 4.680e+00
SLEPc: EPSSolve time = 9 5.698e+00
SLEPc: EPSSolve time = 8 6.435e+00
 QETSC: Eigenvalues         =
-1.7348329932606132E+00
-1.7123480885717139E+00
-1.7123480885713294E+00
-1.7123480873134775E+00
-1.7123480873122316E+00
-1.7123480873117969E+00
-1.7123480873093875E+00
-1.6684613937715449E+00
-1.6684613937711850E+00
-1.6684613937709003E+00
-1.6684613937702157E+00
-1.6684613918231901E+00
-1.6684613918230784E+00
-1.6473748670373018E+00
-1.6473748588048533E+00
-1.6473748588046930E+00
-1.6472839406396644E+00
-1.6472839406393329E+00
-1.6472839375479649E+00
-1.5877580405663612E+00
-1.5877580405662319E+00
-1.5877580363259121E+00
-1.5877580363257802E+00
-1.5877580363248271E+00
-1.5877580363243458E+00
-1.5876794451905532E+00
-1.5876794451898075E+00
-1.5876794451896346E+00
-1.5876794451887855E+00
-1.5876794411374753E+00
-1.5876794411373056E+00
-1.5547187626303141E+00
-1.5547187626299663E+00
-1.5547187610166995E+00
-1.5547187610162818E+00
-1.5547187610149185E+00
-1.5547187610142805E+00
-1.5064535730106563E+00
-1.5064535674615915E+00
-1.5064535674614212E+00
-1.5064302113272867E+00
-1.5064302113268866E+00
-1.5064302050407190E+00
-1.5016730523938440E+00
-1.5016730523931423E+00
-1.5016730460642911E+00
-1.5016730460634984E+00
-1.5016730460603263E+00
-1.5016730460588896E+00
-1.5016725736805410E+00
-1.5016725736802643E+00
-1.5016725736794920E+00
-1.5016725736784988E+00
-1.5016725682144809E+00
-1.5016725682144312E+00
-1.4966049373077863E+00
-1.4965883012883412E+00
-1.4965882918727569E+00
-1.4590676087984358E+00
-1.4590676087982992E+00
-1.4590676087966812E+00
-1.4590676087962287E+00
-1.4590676070696247E+00
-1.4590676070694661E+00
-1.1004953985396471E+00
-1.1003942565174643E+00
-1.1003942022487991E+00
-1.0632350794975629E+00
-1.0632350794968317E+00
-1.0632350794959200E+00
-1.0632350794949894E+00
-1.0632350222819054E+00
-1.0632350222814062E+00
-1.0631561845982080E+00
-1.0631561845977191E+00
-1.0631561845967898E+00
-1.0631561845961053E+00
-1.0631561380105770E+00
-1.0631561380104630E+00
-1.0557128737401915E+00
-1.0557128737400399E+00
-1.0557127944804734E+00
-1.0557127944803897E+00
-1.0557127944791782E+00
-1.0557127944790978E+00
-1.0054334717802571E+00
-1.0054334717800344E+00
-1.0054333780584346E+00
-1.0054333780579132E+00
-1.0054333780561791E+00
-1.0054333780555185E+00
-1.0051678653921643E+00
-1.0051678653910519E+00
-1.0051677679446458E+00
-1.0050974301817739E+00
-1.0050974301807525E+00
-1.0050973478502152E+00
-9.2307100592537095E-01
-9.2307100592535041E-01
-9.2307100592420988E-01
-9.2307100592400115E-01
-9.2307091482407522E-01
-9.2307091482398151E-01
-9.1516455917819584E-01
-9.1516455917795125E-01
-9.1516455917736683E-01
-9.1516455917715578E-01
-9.1516454056544716E-01
-9.1516454056538254E-01
-9.1507034900350381E-01
-9.1507034900328699E-01
-9.1507034900265005E-01
-9.1507034900237549E-01
-9.1507033575991992E-01
-9.1507033575983554E-01
-8.7502453815759385E-01
-8.7502443872359648E-01
-8.7502443872313485E-01
-8.7485196415362732E-01
-8.7485184877963396E-01
-8.7485184877888733E-01
-8.4007582830936800E-01
-8.1241945386154268E-01
-8.1241933968377655E-01
-8.1241933968264424E-01
-8.1225286841664368E-01
-8.1225274322615815E-01
-8.1225274322550367E-01
-8.0947769957599991E-01
-8.0947769957491744E-01
-8.0947769957389282E-01
-8.0947769957168192E-01
-8.0947769953402116E-01
-8.0947769953366311E-01
-8.0302314609155234E-01
-8.0302314609139780E-01
-8.0302308201558514E-01
-8.0302308201535078E-01
-8.0302308201487915E-01
-8.0302308201389838E-01
-8.0289393646536500E-01
-8.0289393646487006E-01
-8.0289384995634472E-01
-8.0289384995549007E-01
-8.0289384995348234E-01
-8.0289384995234236E-01
-7.5202562804970607E-01
-7.5202562804953577E-01
-7.5202561616771024E-01
-7.5202561616737651E-01
-7.5202561616690811E-01
-7.5202561616684349E-01
-7.5195152104474716E-01
-7.5195152104464913E-01
-7.5195148639644116E-01
-7.5195148639606968E-01
-7.5195148639550558E-01
-7.5195148639540565E-01
-7.5047519356849834E-01
-7.5047511128556699E-01
-7.5033057436478590E-01
-7.4981271750925449E-01
-7.4981271750914769E-01
-7.4981271739138611E-01
-7.4981271739124811E-01
-7.4981271739027133E-01
-7.4981271738990030E-01
-7.4212974792213393E-01
-7.4212974792209219E-01
-7.4212974792148068E-01
-7.4212974792120656E-01
-7.4212961219273021E-01
-7.4212961219262208E-01
-7.2601745716804111E-01
-7.2601745716738286E-01
-7.2601745716587973E-01
-7.2601745716533728E-01
-7.2601730165067491E-01
-7.2601730165030098E-01
-7.2104267697266000E-01
-7.2104267697223923E-01
-7.2104267567264124E-01
-7.2101832468142624E-01
-7.2101832367809982E-01
-7.2101832367760599E-01
-6.5979741411478832E-01
-6.5979741411406745E-01
-6.5979723614889363E-01
-6.5971228713299446E-01
-6.5971228713132812E-01
-6.5971212496839204E-01
-6.5808137688926904E-01
-6.5808137688913282E-01
-6.5808121292391497E-01
-6.5808121292378452E-01
-6.5808121292224153E-01
[...]
Flops:                2.664e+09   20487.69451   8.769e+08  1.122e+11
Flops/sec:            2.118e+07   20487.69378   6.973e+06  8.925e+08
MPI Messages:         4.641e+04     13.59505   2.455e+04  3.142e+06
MPI Message Lengths:  6.642e+07      8.26994   1.530e+03  4.807e+09
MPI Reductions:       9.987e+03      2.31502

Flop counting convention: 1 flop = 1 real number operation of type (multiply/divide/add/subtract)
                            e.g., VecAXPY() for real vectors of length N --> 2N flops
                            and VecAXPY() for complex vectors of length N --> 8N flops

Summary of Stages:   ----- Time ------  ----- Flops -----  --- Messages ---  -- Message Lengths --  -- Reductions --
                        Avg     %Total     Avg     %Total   counts   %Total     Avg         %Total   counts   %Total 
 0:      Main Stage: 2.0502e-04   0.0%  0.0000e+00   0.0%  0.000e+00   0.0%  0.000e+00        0.0%  0.000e+00   0.0% 
 1:     siesta_init: 3.0412e+00   2.4%  0.0000e+00   0.0%  0.000e+00   0.0%  0.000e+00        0.0%  0.000e+00   0.0% 
 2:   siesta_forces: 2.4817e+01  19.7%  0.0000e+00   0.0%  0.000e+00   0.0%  0.000e+00        0.0%  0.000e+00   0.0% 
 3:    siesta_solve: 7.3134e-03   0.0%  0.0000e+00   0.0%  0.000e+00   0.0%  0.000e+00        0.0%  0.000e+00   0.0% 
 4:    siesta2qetsc: 1.7382e-01   0.1%  0.0000e+00   0.0%  2.790e+04   0.9%  3.939e-01        0.0%  5.700e+01   1.3% 
 5: qetsc_setup_eps: 8.9321e+00   7.1%  7.3894e+07   0.1%  1.383e+05   4.4%  3.480e+02       22.7%  3.140e+02   7.3% 
 6: qetsc_solve_eps: 7.0306e+01  55.9%  1.1217e+11  99.9%  2.569e+06  81.8%  1.170e+03       76.5%  3.589e+03  83.0% 
 7:   qetsc_eigvals: 9.1357e-03   0.0%  0.0000e+00   0.0%  0.000e+00   0.0%  0.000e+00        0.0%  0.000e+00   0.0% 
 8:   qetsc_density: 4.3977e+00   3.5%  0.0000e+00   0.0%  4.067e+05  12.9%  1.183e+01        0.8%  3.542e+03  81.9% 
10:     siesta_misc: 1.2845e+01  10.2%  0.0000e+00   0.0%  0.000e+00   0.0%  0.000e+00        0.0%  0.000e+00   0.0% 
11:     qetsc_clean: 1.2110e-02   0.0%  0.0000e+00   0.0%  0.000e+00   0.0%  0.000e+00        0.0%  0.000e+00   0.0% 
12:     siesta_move: 6.4594e-05   0.0%  0.0000e+00   0.0%  0.000e+00   0.0%  0.000e+00        0.0%  0.000e+00   0.0% 
13: siesta_analysis: 3.7548e-03   0.0%  0.0000e+00   0.0%  0.000e+00   0.0%  0.000e+00        0.0%  0.000e+00   0.0% 
14:      siesta_end: 1.2082e+00   1.0%  0.0000e+00   0.0%  0.000e+00   0.0%  0.000e+00        0.0%  0.000e+00   0.0% 

------------------------------------------------------------------------------------------------------------------------
See the 'Profiling' chapter of the users' manual for details on interpreting output.
Phase summary info:
   Count: number of times phase was executed
   Time and Flops: Max - maximum over all processors
                   Ratio - ratio of maximum to minimum over all processors
   Mess: number of messages sent
   Avg. len: average message length (bytes)
   Reduct: number of global reductions
   Global: entire computation
   Stage: stages of a computation. Set stages with PetscLogStagePush() and PetscLogStagePop().
      %T - percent time in this phase         %F - percent flops in this phase
      %M - percent messages in this phase     %L - percent message lengths in this phase
      %R - percent reductions in this phase
   Total Mflop/s: 10e-6 * (sum of flops over all processors)/(max time over all processors)
------------------------------------------------------------------------------------------------------------------------
Event                Count      Time (sec)     Flops                             --- Global ---  --- Stage ---   Total
                   Max Ratio  Max     Ratio   Max  Ratio  Mess   Avg len Reduct  %T %F %M %L %R  %T %F %M %L %R Mflop/s
------------------------------------------------------------------------------------------------------------------------

--- Event Stage 0: Main Stage


--- Event Stage 1: siesta_init


--- Event Stage 2: siesta_forces


--- Event Stage 3: siesta_solve


--- Event Stage 4: siesta2qetsc

MatConvert             2 1.0 1.4427e-03 1.1 0.00e+00 0.0 0.0e+00 0.0e+00 0.0e+00  0  0  0  0  0   1  0  0  0  0     0
MatAssemblyBegin      11 1.0 1.4430e-0179.7 0.00e+00 0.0 0.0e+00 0.0e+00 4.4e+01  0  0  0  0  1  55  0  0  0 77     0
MatAssemblyEnd        11 1.0 6.1163e-03 1.0 0.00e+00 0.0 2.8e+04 4.4e+01 1.1e+01  0  0  1  0  0   4  0100100 19     0
VecSet                 3 1.0 1.4111e-05 1.6 0.00e+00 0.0 0.0e+00 0.0e+00 0.0e+00  0  0  0  0  0   0  0  0  0  0     0

--- Event Stage 5: qetsc_setup_eps

MatCholFctrSym         1 1.0 1.7537e-01 1.0 0.00e+00 0.0 0.0e+00 0.0e+00 5.0e+00  0  0  0  0  0   2  0  0  0  2     0
MatCholFctrNum         5 1.0 6.6595e+00 1.2 0.00e+00 0.0 0.0e+00 0.0e+00 0.0e+00  5  0  0  0  0  69  0  0  0  0     0
MatCopy                4 1.0 3.1612e-01 1.0 0.00e+00 0.0 0.0e+00 0.0e+00 2.4e+01  0  0  0  0  1   4  0  0  0  8     0
MatConvert             1 1.0 2.4752e-03 3.7 0.00e+00 0.0 0.0e+00 0.0e+00 0.0e+00  0  0  0  0  0   0  0  0  0  0     0
MatScale              18 1.0 2.6730e-03 5.4 1.02e+06 7.9 0.0e+00 0.0e+00 0.0e+00  0  0  0  0  0   0100  0  0  0 27644
MatAssemblyBegin      31 1.0 1.4897e+00424.6 0.00e+00 0.0 0.0e+00 0.0e+00 8.0e+01  1  0  0  0  2   9  0  0  0 25     0
MatAssemblyEnd        31 1.0 6.8518e-02 1.1 0.00e+00 0.0 2.6e+04 5.8e+02 8.8e+01  0  0  1  0  2   1  0 19  1 28     0
MatGetRow           2912 1.0 2.1298e-01 6.8 0.00e+00 0.0 0.0e+00 0.0e+00 0.0e+00  0  0  0  0  0   1  0  0  0  0     0
MatGetSubMatrice      11 1.0 2.7116e-01 4.4 0.00e+00 0.0 1.1e+05 9.6e+03 2.2e+01  0  0  4 22  1   2  0 81 99  7     0
MatZeroEntries         4 1.0 1.7437e-03 5.0 0.00e+00 0.0 0.0e+00 0.0e+00 0.0e+00  0  0  0  0  0   0  0  0  0  0     0
MatAXPY               14 1.0 6.2358e-01 1.0 0.00e+00 0.0 1.6e+04 5.8e+02 8.0e+01  0  0  1  0  2   7  0 12  1 25     0
MatRedundantMat       11 1.0 1.0171e+00 1.1 0.00e+00 0.0 1.2e+05 8.9e+03 1.1e+02  1  0  4 23  3  11  0 88 99 35     0
MatMPIConcateSeq      11 1.0 8.7040e-01 1.2 0.00e+00 0.0 9.9e+03 5.8e+02 8.9e+01  1  0  0  0  2   9  0  7  1 28     0
VecSet                10 1.0 4.4752e-05 1.6 0.00e+00 0.0 0.0e+00 0.0e+00 0.0e+00  0  0  0  0  0   0  0  0  0  0     0
EPSSetUp               5 1.0 8.1357e+00 1.0 0.00e+00 0.0 4.4e+04 4.8e+03 2.4e+02  6  0  1  4  6  91  0 31 19 77     0
STSetUp               10 1.0 7.7819e+00 1.1 0.00e+00 0.0 1.6e+04 5.8e+02 1.1e+02  6  0  1  0  3  82  0 12  1 36     0
KSPSetUp               5 1.0 1.2067e-05 1.9 0.00e+00 0.0 0.0e+00 0.0e+00 0.0e+00  0  0  0  0  0   0  0  0  0  0     0
PCSetUp                5 1.0 6.8442e+00 1.2 0.00e+00 0.0 0.0e+00 0.0e+00 5.0e+00  5  0  0  0  0  71  0  0  0  2     0
BVCreate               4 1.0 5.3697e-04 1.1 0.00e+00 0.0 0.0e+00 0.0e+00 8.0e+00  0  0  0  0  0   0  0  0  0  3     0

--- Event Stage 6: qetsc_solve_eps

MatMult             5451 0.0 1.5037e+01 0.0 2.48e+09 0.0 2.3e+06 1.4e+03 0.0e+00  5 89 74 69  0   9 89 91 90  0  6609
MatSolve            2119 0.0 3.1805e+01 0.0 0.00e+00 0.0 2.1e+05 1.6e+03 1.2e+03 13  0  7  7 27  24  0  8  9 33     0
MatCholFctrNum        11 1.1 1.3845e+01 1.2 0.00e+00 0.0 0.0e+00 0.0e+00 0.0e+00 10  0  0  0  0  18  0  0  0  0     0
MatCopy               11 1.1 8.6801e-01 1.1 0.00e+00 0.0 0.0e+00 0.0e+00 6.2e+01  1  0  0  0  1   1  0  0  0  2     0
MatAssemblyBegin      22 1.1 1.8768e+00536.6 0.00e+00 0.0 0.0e+00 0.0e+00 8.2e+01  1  0  0  0  2   1  0  0  0  2     0
MatAssemblyEnd        22 1.1 8.1291e-02 1.1 0.00e+00 0.0 3.4e+04 5.8e+02 1.2e+02  0  0  1  0  3   0  0  1  1  3     0
MatGetRow           6864 1.1 5.0296e-01 7.6 0.00e+00 0.0 0.0e+00 0.0e+00 0.0e+00  0  0  0  0  0   0  0  0  0  0     0
MatZeroEntries        11 1.1 3.9295e-03 5.3 0.00e+00 0.0 0.0e+00 0.0e+00 0.0e+00  0  0  0  0  0   0  0  0  0  0     0
MatAXPY               11 1.1 1.3662e+00 1.1 0.00e+00 0.0 3.4e+04 5.8e+02 1.6e+02  1  0  1  0  4   2  0  1  1  5     0
VecDot               347 0.0 4.3457e-01 0.0 1.44e+05 0.0 0.0e+00 0.0e+00 1.6e+02  0  0  0  0  4   0  0  0  0  4    20
VecCopy               84 0.0 2.0616e-04 0.0 0.00e+00 0.0 0.0e+00 0.0e+00 0.0e+00  0  0  0  0  0   0  0  0  0  0     0
VecSet             184831848.3 4.6806e-021582.7 0.00e+00 0.0 0.0e+00 0.0e+00 0.0e+00  0  0  0  0  0   0  0  0  0  0     0
VecScatterBegin     9689 0.0 3.1755e+00 0.0 0.00e+00 0.0 2.5e+06 1.4e+03 1.1e+03  1  0 81 76 27   1  0 99 99 32     0
VecScatterEnd       7570 0.0 6.7934e+00 0.0 0.00e+00 0.0 0.0e+00 0.0e+00 0.0e+00  1  0  0  0  0   3  0  0  0  0     0
VecSetRandom          10 0.0 1.3037e-03 0.0 0.00e+00 0.0 0.0e+00 0.0e+00 0.0e+00  0  0  0  0  0   0  0  0  0  0     0
EPSSetUp              10 1.0 1.5573e+01 1.0 0.00e+00 0.0 3.3e+04 5.8e+02 3.5e+02 12  0  1  0  8  22  0  1  1 10     0
EPSSolve              10 1.0 7.0335e+01 1.0 2.66e+09 0.0 2.6e+06 1.4e+03 3.6e+03 56100 82 76 83 100100100100100  1595
STSetUp               15 1.0 7.5785e+00 1.1 0.00e+00 0.0 1.6e+04 5.8e+02 1.1e+02  6  0  1  0  3  10  0  1  0  3     0
STApply             2119 0.0 3.5383e+01 0.0 9.64e+08 0.0 1.1e+06 1.5e+03 1.2e+03 15 34 35 33 27  27 34 42 43 33  1065
STMatSolve          2119 0.0 3.2124e+01 0.0 0.00e+00 0.0 2.1e+05 1.6e+03 1.2e+03 13  0  7  7 27  24  0  8  9 33     0
KSPSetUp              11 1.1 2.2064e-05 1.9 0.00e+00 0.0 0.0e+00 0.0e+00 0.0e+00  0  0  0  0  0   0  0  0  0  0     0
KSPSolve            2119 0.0 3.1883e+01 0.0 0.00e+00 0.0 2.1e+05 1.6e+03 1.2e+03 13  0  7  7 27  24  0  8  9 33     0
PCSetUp               11 1.1 1.3846e+01 1.2 0.00e+00 0.0 0.0e+00 0.0e+00 0.0e+00 10  0  0  0  0  18  0  0  0  0     0
PCApply             2119 0.0 3.1813e+01 0.0 0.00e+00 0.0 2.1e+05 1.6e+03 1.2e+03 13  0  7  7 27  24  0  8  9 33     0
BVCreate              26 5.2 8.4013e-0313.2 0.00e+00 0.0 0.0e+00 0.0e+00 1.1e+02  0  0  0  0  3   0  0  0  0  3     0
BVCopy                84 0.0 6.3027e-04 0.0 0.00e+00 0.0 0.0e+00 0.0e+00 0.0e+00  0  0  0  0  0   0  0  0  0  0     0
BVMultVec           2985 0.0 1.2544e-01 0.0 6.73e+07 0.0 0.0e+00 0.0e+00 0.0e+00  0  4  0  0  0   0  4  0  0  0 35628
BVMultInPlace         46 0.0 3.3390e-02 0.0 4.79e+07 0.0 0.0e+00 0.0e+00 0.0e+00  0  3  0  0  0   0  3  0  0  0 111074
BVDotVec            2985 0.0 8.5608e+00 0.0 1.43e+09 0.0 1.3e+06 1.4e+03 1.7e+03  4 54 42 39 40   7 54 52 51 48  7130
BVOrthogonalizeV    1772 0.0 8.6931e+00 0.0 1.49e+09 0.0 1.3e+06 1.4e+03 1.7e+03  4 58 42 39 40   7 58 52 51 48  7535
BVScale             2119 0.0 1.0577e-02 0.0 4.41e+05 0.0 0.0e+00 0.0e+00 0.0e+00  0  0  0  0  0   0  0  0  0  0  2894
BVNormVec            347 0.0 9.8028e-01 0.0 1.58e+08 0.0 1.2e+05 1.4e+03 1.6e+02  0  5  4  4  4   1  5  5  5  4  5356
BVSetRandom           10 0.0 1.4115e-03 0.0 0.00e+00 0.0 0.0e+00 0.0e+00 0.0e+00  0  0  0  0  0   0  0  0  0  0     0
DSSolve               45 0.0 3.7247e-01 0.0 0.00e+00 0.0 0.0e+00 0.0e+00 0.0e+00  0  0  0  0  0   0  0  0  0  0     0
DSVectors           2665 0.0 6.2094e-03 0.0 0.00e+00 0.0 0.0e+00 0.0e+00 0.0e+00  0  0  0  0  0   0  0  0  0  0     0
DSOther               46 0.0 8.8247e-03 0.0 0.00e+00 0.0 0.0e+00 0.0e+00 0.0e+00  0  0  0  0  0   0  0  0  0  0     0

--- Event Stage 7: qetsc_eigvals


--- Event Stage 8: qetsc_density

VecCopy             2560 1.0 5.0337e-03 1.1 0.00e+00 0.0 0.0e+00 0.0e+00 0.0e+00  0  0  0  0  0   0  0  0  0  0     0
VecSet                 1 1.0 4.4400e-06 1.2 0.00e+00 0.0 0.0e+00 0.0e+00 0.0e+00  0  0  0  0  0   0  0  0  0  0     0
VecScatterBegin     5120 1.0 8.3633e-01 2.7 0.00e+00 0.0 3.3e+05 1.0e+02 2.6e+03  0  0 10  1 59  13  0 80 91 72     0
VecScatterEnd       2560 1.0 1.8919e-01 1.1 0.00e+00 0.0 0.0e+00 0.0e+00 0.0e+00  0  0  0  0  0   4  0  0  0  0     0
BVCopy              2560 1.0 1.7654e-02 1.1 0.00e+00 0.0 0.0e+00 0.0e+00 0.0e+00  0  0  0  0  0   0  0  0  0  0     0

--- Event Stage 9: Unknown


--- Event Stage 10: siesta_misc


--- Event Stage 11: qetsc_clean


--- Event Stage 12: siesta_move


--- Event Stage 13: siesta_analysis


--- Event Stage 14: siesta_end

------------------------------------------------------------------------------------------------------------------------

Memory usage is given in bytes:

Object Type          Creations   Destructions     Memory  Descendants' Mem.
Reports information only for process 0.

--- Event Stage 0: Main Stage


--- Event Stage 1: siesta_init


--- Event Stage 2: siesta_forces


--- Event Stage 3: siesta_solve


--- Event Stage 4: siesta2qetsc

              Matrix     9              0            0     0.
              Vector    19              1         1648     0.
      Vector Scatter     4              0            0     0.
           Index Set     4              4        21352     0.

--- Event Stage 5: qetsc_setup_eps

              Matrix    31             15      7183768     0.
              Vector   111             67       385200     0.
      Vector Scatter    18              9         9648     0.
           Index Set    63             56       255872     0.
          EPS Solver     2              0            0     0.
  Spectral Transform     2              0            0     0.
       Krylov Solver     2              0            0     0.
      Preconditioner     2              0            0     0.
       Basis Vectors     7              4         4224     0.
         PetscRandom     1              0            0     0.
              Region     2              0            0     0.
       Direct Solver     2              0            0     0.

--- Event Stage 6: qetsc_solve_eps

              Matrix    30             30     14425320     0.
              Vector   135            135       710448     0.
      Vector Scatter    20             20        21440     0.
           Index Set    40             40       296320     0.
       Basis Vectors    10             10        10560     0.

--- Event Stage 7: qetsc_eigvals


--- Event Stage 8: qetsc_density

              Vector    11             10        33120     0.
      Vector Scatter   161            160       172560     0.
           Index Set   321            321       268304     0.

--- Event Stage 9: Unknown


--- Event Stage 10: siesta_misc


--- Event Stage 11: qetsc_clean

              Matrix     0             25     12730982     0.
              Vector     0             63       473208     0.
      Vector Scatter     0             14        14176     0.
           Index Set     0              7         5488     0.
          EPS Solver     0              2        25152     0.
  Spectral Transform     0              2         1632     0.
       Krylov Solver     0              2         2336     0.
      Preconditioner     0              2         1952     0.
       Basis Vectors     0              3         3168     0.
         PetscRandom     0              1          638     0.
              Region     0              2         1312     0.
       Direct Solver     0              2       109992     0.

--- Event Stage 12: siesta_move


--- Event Stage 13: siesta_analysis


--- Event Stage 14: siesta_end

              Viewer     1              0            0     0.
========================================================================================================================
Average time to get PetscTime(): 1.24e-07
Average time for MPI_Barrier(): 3.01062e-06
Average time for zero size MPI_Send(): 1.24202e-05
#PETSc Option Table entries:
-eps_interval -2.3,0.
-eps_krylovschur_detect_zeros 0
-eps_krylovschur_partitions 16
-ioptbin 7
-ioptdensity 0
-ioptinertia 1
-ioptleft 2
-log_view
-mat_mumps_cntl_3 1e-12
-mat_mumps_icntl_13 1
-mat_mumps_icntl_23 0
-mat_mumps_icntl_24 1
-mat_mumps_icntl_7 5
-mat_type mpisbaij
-roptbuffer 0.01
-roptdiff 0.02
-writeeigs 1
#End of PETSc Option Table entries
Compiled with FORTRAN kernels
Compiled with full precision matrices (default)
sizeof(short) 2 sizeof(int) 4 sizeof(long) 8 sizeof(void*) 8 sizeof(PetscScalar) 8 sizeof(PetscInt) 4
Configure options: --known-has-attribute-aligned=1 --download-chaco=0 --download-cmake=0 --download-hypre=0 --download-metis=1 --download-mumps=1 --download-parmetis=1 --download-plapack=0 --download-prometheus=0 --download-ptscotch=1 --download-spai=0 --download-spooles=0 --download-superlu=0 --download-superlu_dist=0 --download-triangle=0 --known-bits-per-byte=8 --known-level1-dcache-assoc=0 --known-level1-dcache-linesize=32 --known-level1-dcache-size=32768 --known-memcmp-ok=1 --known-mpi-c-double-complex=1 --known-mpi-int64_t=1 --known-mpi-long-double=1 --known-mpi-shared-libraries=0 --known-sdot-returns-double=0 --known-sizeof-MPI_Comm=4 --known-sizeof-MPI_Fint=4 --known-sizeof-char=1 --known-sizeof-double=8 --known-sizeof-float=4 --known-sizeof-int=4 --known-sizeof-long-long=8 --known-sizeof-long=8 --known-sizeof-short=2 --known-sizeof-size_t=8 --known-sizeof-void-p=8 --known-snrm2-returns-double=0 --with-batch=1 --with-blacs-include=/soft/libraries/alcf/current/xl/SCALAPACK/ --with-blacs-lib=/soft/libraries/alcf/current/xl/SCALAPACK/lib/libscalapack.a --with-blas-lapack-lib="-L/soft/libraries/alcf/current/xl/LAPACK/lib -llapack -L/soft/libraries/alcf/current/xl/BLAS/lib -lblas" --with-cc=mpixlc_r --with-clib-autodetect=0 --with-cxx=mpixlcxx_r --with-cxxlib-autodetect=0 --with-debugging=0 --with-fc="mpixlf77_r -qnosave" --with-fortran-kernels=1 --with-fortranlib-autodetect=0 --with-is-color-value-type=short --with-scalapack-include=/soft/libraries/alcf/current/xl/SCALAPACK/ --with-scalapack-lib=/soft/libraries/alcf/current/xl/SCALAPACK/lib/libscalapack.a --with-shared-libraries=0 --with-x=0 -COPTFLAGS=" -g -O3 -qhot=level=0 -qsimd=auto -qmaxmem=-1 -qstrict -qstrict_induction" -CXXOPTFLAGS="  -g -O3 -qhot=level=0 -qsimd=auto -qmaxmem=-1 -qstrict -qstrict_induction" -FOPTFLAGS=" -g -O3 -qhot=level=0 -qsimd=auto -qmaxmem=-1 -qstrict -qstrict_induction" LIBS="-lmpichcxx-gcc -lmpichf77-gcc -L/soft/compilers/ibmcmp-feb2015/vacpp/bg/12.1/bglib64 -libmc++ -L/soft/compilers/ibmcmp-feb2015/xlf/bg/14.1/bglib64 -lxlf90_r -lxlomp_ser -lxlfmath" PETSC_ARCH=arch-xl
-----------------------------------------
Libraries compiled on Sat Aug 20 04:19:47 2016 on vestalac2 
Machine characteristics: Linux-2.6.32-573.18.1.el6.ppc64-ppc64-with-redhat-6.7-Santiago
Using PETSc directory: /home/keceli/scratch2/petsc
Using PETSc arch: arch-xl
-----------------------------------------

Using C compiler: mpixlc_r   -g -O3 -qhot=level=0 -qsimd=auto -qmaxmem=-1 -qstrict -qstrict_induction  ${COPTFLAGS} ${CFLAGS}
Using Fortran compiler: mpixlf77_r -qnosave  -g -O3 -qhot=level=0 -qsimd=auto -qmaxmem=-1 -qstrict -qstrict_induction   ${FOPTFLAGS} ${FFLAGS} 
-----------------------------------------

Using include paths: -I/home/keceli/scratch2/petsc/arch-xl/include -I/home/keceli/scratch2/petsc/include -I/home/keceli/scratch2/petsc/include -I/home/keceli/scratch2/petsc/arch-xl/include -I/bgsys/drivers/V1R2M4/ppc64/comm/include -I/bgsys/drivers/V1R2M4/ppc64/comm/lib/xl -I/bgsys/drivers/V1R2M4/ppc64 -I/bgsys/drivers/V1R2M4/ppc64/comm/sys/include -I/bgsys/drivers/V1R2M4/ppc64/spi/include -I/bgsys/drivers/V1R2M4/ppc64/spi/include/kernel/cnk
-----------------------------------------

Using C linker: mpixlc_r
Using Fortran linker: mpixlf77_r -qnosave
Using libraries: -Wl,-rpath,/home/keceli/scratch2/petsc/arch-xl/lib -L/home/keceli/scratch2/petsc/arch-xl/lib -lpetsc -Wl,-rpath,/home/keceli/scratch2/petsc/arch-xl/lib -L/home/keceli/scratch2/petsc/arch-xl/lib -lcmumps -ldmumps -lsmumps -lzmumps -lmumps_common -lpord -Wl,-rpath,/soft/libraries/alcf/current/xl/SCALAPACK/lib -L/soft/libraries/alcf/current/xl/SCALAPACK/lib -lscalapack -L/soft/libraries/alcf/current/xl/LAPACK/lib -llapack -L/soft/libraries/alcf/current/xl/BLAS/lib -lblas -lparmetis -lmetis -lptesmumps -lptscotch -lptscotcherr -lscotch -lscotcherr -lrt -lm -lpthread -ldl -lmpichcxx-gcc -lmpichf77-gcc -L/soft/compilers/ibmcmp-feb2015/vacpp/bg/12.1/bglib64 -libmc++ -L/soft/compilers/ibmcmp-feb2015/xlf/bg/14.1/bglib64 -lxlf90_r -lxlomp_ser -lxlfmath
-----------------------------------------

