s.subSiesta: Submission time = 17s40m12h
s.subSiesta: Job name = sb32_s1_n128_c16
s.subSiesta: Number of nodes = 128
s.subSiesta: Number of cores = 2048
s.subSiesta: Number of cores/node = 16
s.subSiesta: Number of slices = 1
s.subSiesta: Mapping = ABCDET
17s40m12h
#QETSc options
-ioptbin 7
-ioptdensity 0
-ioptinertia 1
-ioptleft 2
-roptbuffer 0.01
-roptdiff 0.02
-writeeigs 1

#PETSc options
-mat_type mpisbaij
-log_view
#-mat_view
#-memory_view
#-mat_mumps_icntl_13 1 #turn off scaLAPACK for matrix inertia
#-mat_mumps_icntl_24 1 #null pivot row detection for matrix inertia
-mat_mumps_icntl_23 700
#-mat_mumps_icntl_28 1 # serial analysis
#-mat_mumps_icntl_28 2 #parallel analysis
#-mat_mumps_icntl_29 1 #ptscotch
#-mat_mumps_icntl_29 2 #parmetis
-mat_mumps_icntl_7 5 #metis
#-malloc_info 
#-mat_view ::ascii_info 
#-mat_getrow_uppertriangular 1
#-st_type sinvert 
#-st_ksp_type preonly 
#-st_pc_type cholesky 
#-st_pc_factor_mat_solver_package mumps 

#SLEPc options

#-eps_krylovschur_partitions 1  
-eps_interval -2.3,0.
#-eps_tol  1.e-8
-eps_krylovschur_detect_zeros 0
#-eps_purify 1
SystemName          BN
SystemLabel         BN
NumberOfAtoms       2
NumberOfSpecies     2

#SolutionMethod  slepc1
DM.MixingWeight 0.3
DM.NumberPulay 3
WriteDM .false.
WriteDM.NetCDF .false.
WriteDMHS.NetCDF .false.
LongOutput .false.


%block ChemicalSpeciesLabel
 1  5  B
 2  7  N
%endblock ChemicalSpeciesLabel

PAO.BasisType split
PAO.BasisSize DZP

LatticeConstant 1.00 Ang
%block LatticeVectors
20.000000000000000        0.0000000000000000        0.0000000000000000        
0.0000000000000000        2.1385199999999998        1.2346750976673984        
0.0000000000000000        2.1385199999999998       -1.2346750976673984        
%endblock LatticeVectors

%block kgrid_Monkhorst_Pack
1 0 0 0.0
0 1 0 0.0
0 0 1 0.0
%endblock kgrid_Monkhorst_Pack

%block SuperCell
1 0 0
0 32 0
0 0 32
%endblock SuperCell

AtomicCoordinatesFormat Ang
%block AtomicCoordinatesAndAtomicSpecies
 0.0000000000000000 1.4256799999999998 0.0000000000000000 1
 0.0000000000000000 2.8513599999999997 0.0000000000000000 2
%endblock AtomicCoordinatesAndAtomicSpecies
Siesta Version: siesta-trunk-492
Architecture  : powerpc64-unknown-linux-gnu--Xlf
Compiler flags: mpixlf90_r -I/home/keceli/scratch2/petsc/include -I/home/keceli/scratch2/petssc/arch-xl/include -I/bgsys/drivers/V1R2M4/ppc64/comm/include -I/bgsys/drivers/V1R2M4/ppc64/comm/lib/xl -I/bgsys/drivers/V1R2M4/ppc64 -I/bgsys/drivers/V1R2M4/ppc64/comm/sys/include -I/bgsys/drivers/V1R2M4/ppc64/spi/include -I/bgsys/drivers/V1R2M4/ppc64/spi/include/kernel/cnk -I/home/keceli/scratch2/slepcfork/include -I/home/keceli/scratch2/slepcfork/arch-xl/include
PP flags      : -WF,-DMPI -WF,-DFC_HAVE_ABORT -WF,-DBSC_CELLXC -WF,-DMPI_TIMING 
PARALLEL version

* Running on 2048 nodes in parallel
>> Start of run:   8-DEC-2016  12:41:19

                           ***********************       
                           *  WELCOME TO SIESTA  *       
                           ***********************       
WARNING: Siesta is reading its input from file INPUT_DEBUG

reinit: -----------------------------------------------------------------------
reinit: System Name: BN
reinit: -----------------------------------------------------------------------
reinit: System Label: BN                                                          
reinit: -----------------------------------------------------------------------

initatom: Reading input for the pseudopotentials and atomic orbitals ----------
Species number:   1 Atomic number:    5 Label: B
Species number:   2 Atomic number:    7 Label: N
 
Ground state valence configuration:   2s02  2p01
Reading pseudopotential information in formatted form from B.psf

Valence configuration for pseudopotential generation:
2s( 2.00) rc: 1.74
2p( 1.00) rc: 1.74
3d( 0.00) rc: 1.74
4f( 0.00) rc: 1.74
Ground state valence configuration:   2s02  2p03
Reading pseudopotential information in formatted form from N.psf

Valence configuration for pseudopotential generation:
2s( 2.00) rc: 1.48
2p( 3.00) rc: 1.48
3d( 0.00) rc: 1.48
4f( 0.00) rc: 1.48
For B, standard SIESTA heuristics set lmxkb to 3
 (one more than the basis l, including polarization orbitals).
Use PS.lmax or PS.KBprojectors blocks to override.
For N, standard SIESTA heuristics set lmxkb to 3
 (one more than the basis l, including polarization orbitals).
Use PS.lmax or PS.KBprojectors blocks to override.

<basis_specs>
===============================================================================
B                    Z=   5    Mass=  10.810        Charge= 0.17977+309
Lmxo=1 Lmxkb= 3    BasisType=split      Semic=F
L=0  Nsemic=0  Cnfigmx=2
          n=1  nzeta=2  polorb=0
            splnorm:   0.15000    
               vcte:    0.0000    
               rinn:    0.0000    
               qcoe:    0.0000    
               qyuk:    0.0000    
               qwid:   0.10000E-01
                rcs:    0.0000      0.0000    
            lambdas:    1.0000      1.0000    
L=1  Nsemic=0  Cnfigmx=2
          n=1  nzeta=2  polorb=1
            splnorm:   0.15000    
               vcte:    0.0000    
               rinn:    0.0000    
               qcoe:    0.0000    
               qyuk:    0.0000    
               qwid:   0.10000E-01
                rcs:    0.0000      0.0000    
            lambdas:    1.0000      1.0000    
-------------------------------------------------------------------------------
L=0  Nkbl=1  erefs: 0.17977+309
L=1  Nkbl=1  erefs: 0.17977+309
L=2  Nkbl=1  erefs: 0.17977+309
L=3  Nkbl=1  erefs: 0.17977+309
===============================================================================
</basis_specs>

atom: Called for B                     (Z =   5)

read_vps: Pseudopotential generation method:
read_vps: ATM3      Troullier-Martins                       
Total valence charge:    3.00000

read_vps: Pseudopotential includes a core correction:
read_vps: Pseudo-core for xc-correction

xc_check: Exchange-correlation functional:
xc_check: Ceperley-Alder
V l=0 = -2*Zval/r beyond r=  1.7165
V l=1 = -2*Zval/r beyond r=  1.7165
V l=2 = -2*Zval/r beyond r=  1.7165
V l=3 = -2*Zval/r beyond r=  1.6951
All V_l potentials equal beyond r=  1.7165
This should be close to max(r_c) in ps generation
All pots = -2*Zval/r beyond r=  1.7165

VLOCAL1: 99.0% of the norm of Vloc inside     14.733 Ry
VLOCAL1: 99.9% of the norm of Vloc inside     33.577 Ry
atom: Maximum radius for 4*pi*r*r*local-pseudopot. charge    2.04484
atom: Maximum radius for r*vlocal+2*Zval:    1.75994
GHOST: No ghost state for L =  0
GHOST: No ghost state for L =  1
GHOST: No ghost state for L =  2
GHOST: No ghost state for L =  3

KBgen: Kleinman-Bylander projectors: 
   l= 0   rc=  1.897051   el= -0.689821   Ekb=  4.267659   kbcos=  0.294941
   l= 1   rc=  1.920920   el= -0.273582   Ekb= -2.493518   kbcos= -0.316494
   l= 2   rc=  2.044840   el=  0.002410   Ekb= -0.642570   kbcos= -0.014732
   l= 3   rc=  2.149707   el=  0.003543   Ekb= -0.260486   kbcos= -0.002341

KBgen: Total number of  Kleinman-Bylander projectors:   16
atom: -------------------------------------------------------------------------

atom: SANKEY-TYPE ORBITALS:
atom: Selected multiple-zeta basis: split     

SPLIT: Orbitals with angular momentum L= 0

SPLIT: Basis orbitals for state 2s

SPLIT: PAO cut-off radius determined from an
SPLIT: energy shift=  0.020000 Ry

   izeta = 1
                 lambda =    1.000000
                     rc =    4.906010
                 energy =   -0.672079
                kinetic =    0.600553
    potential(screened) =   -1.272632
       potential(ionic) =   -3.301886

   izeta = 2
                 rmatch =    4.170113
              splitnorm =    0.150000
                 energy =   -0.581071
                kinetic =    0.883210
    potential(screened) =   -1.464280
       potential(ionic) =   -3.607314

SPLIT: Orbitals with angular momentum L= 1

SPLIT: Basis orbitals for state 2p

SPLIT: PAO cut-off radius determined from an
SPLIT: energy shift=  0.020000 Ry

   izeta = 1
                 lambda =    1.000000
                     rc =    5.700051
                 energy =   -0.254269
                kinetic =    1.609303
    potential(screened) =   -1.863571
       potential(ionic) =   -3.822590

   izeta = 2
                 rmatch =    4.275693
              splitnorm =    0.150000
                 energy =   -0.140145
                kinetic =    2.432023
    potential(screened) =   -2.572168
       potential(ionic) =   -4.719137

POLgen: Perturbative polarization orbital with L=  2

POLgen: Polarization orbital for state 2p

   izeta = 1
                     rc =    5.700051
                 energy =    0.829041
                kinetic =    1.746766
    potential(screened) =   -0.917724
       potential(ionic) =   -2.618902
atom: Total number of Sankey-type orbitals: 13

atm_pop: Valence configuration (for local Pseudopot. screening):
 2s( 2.00)                                                            
 2p( 1.00)                                                            
Vna: chval, zval:    3.00000   3.00000

Vna:  Cut-off radius for the neutral-atom potential:   5.700051
comcore: Pseudo-core radius Rcore=  2.122997

atom: _________________________________________________________________________

<basis_specs>
===============================================================================
N                    Z=   7    Mass=  14.010        Charge= 0.17977+309
Lmxo=1 Lmxkb= 3    BasisType=split      Semic=F
L=0  Nsemic=0  Cnfigmx=2
          n=1  nzeta=2  polorb=0
            splnorm:   0.15000    
               vcte:    0.0000    
               rinn:    0.0000    
               qcoe:    0.0000    
               qyuk:    0.0000    
               qwid:   0.10000E-01
                rcs:    0.0000      0.0000    
            lambdas:    1.0000      1.0000    
L=1  Nsemic=0  Cnfigmx=2
          n=1  nzeta=2  polorb=1
            splnorm:   0.15000    
               vcte:    0.0000    
               rinn:    0.0000    
               qcoe:    0.0000    
               qyuk:    0.0000    
               qwid:   0.10000E-01
                rcs:    0.0000      0.0000    
            lambdas:    1.0000      1.0000    
-------------------------------------------------------------------------------
L=0  Nkbl=1  erefs: 0.17977+309
L=1  Nkbl=1  erefs: 0.17977+309
L=2  Nkbl=1  erefs: 0.17977+309
L=3  Nkbl=1  erefs: 0.17977+309
===============================================================================
</basis_specs>

atom: Called for N                     (Z =   7)

read_vps: Pseudopotential generation method:
read_vps: ATM3      Troullier-Martins                       
Total valence charge:    5.00000

xc_check: Exchange-correlation functional:
xc_check: Ceperley-Alder
V l=0 = -2*Zval/r beyond r=  1.4606
V l=1 = -2*Zval/r beyond r=  1.4606
V l=2 = -2*Zval/r beyond r=  1.4606
V l=3 = -2*Zval/r beyond r=  1.4606
All V_l potentials equal beyond r=  1.4606
This should be close to max(r_c) in ps generation
All pots = -2*Zval/r beyond r=  1.4606

VLOCAL1: 99.0% of the norm of Vloc inside     20.347 Ry
VLOCAL1: 99.9% of the norm of Vloc inside     46.372 Ry
atom: Maximum radius for 4*pi*r*r*local-pseudopot. charge    1.76189
atom: Maximum radius for r*vlocal+2*Zval:    1.53550
GHOST: No ghost state for L =  0
GHOST: No ghost state for L =  1
GHOST: No ghost state for L =  2
GHOST: No ghost state for L =  3

KBgen: Kleinman-Bylander projectors: 
   l= 0   rc=  1.634559   el= -1.352239   Ekb=  4.901185   kbcos=  0.337501
   l= 1   rc=  1.614250   el= -0.532623   Ekb= -5.544141   kbcos= -0.433040
   l= 2   rc=  1.740002   el=  0.002346   Ekb= -1.331777   kbcos= -0.007563
   l= 3   rc=  1.806505   el=  0.003449   Ekb= -0.515466   kbcos= -0.000994

KBgen: Total number of  Kleinman-Bylander projectors:   16
atom: -------------------------------------------------------------------------

atom: SANKEY-TYPE ORBITALS:
atom: Selected multiple-zeta basis: split     

SPLIT: Orbitals with angular momentum L= 0

SPLIT: Basis orbitals for state 2s

SPLIT: PAO cut-off radius determined from an
SPLIT: energy shift=  0.020000 Ry

   izeta = 1
                 lambda =    1.000000
                     rc =    3.683980
                 energy =   -1.333780
                kinetic =    1.203249
    potential(screened) =   -2.537029
       potential(ionic) =   -8.126274

   izeta = 2
                 rmatch =    2.905100
              splitnorm =    0.150000
                 energy =   -1.138702
                kinetic =    1.810192
    potential(screened) =   -2.948894
       potential(ionic) =   -8.945013

SPLIT: Orbitals with angular momentum L= 1

SPLIT: Basis orbitals for state 2p

SPLIT: PAO cut-off radius determined from an
SPLIT: energy shift=  0.020000 Ry

   izeta = 1
                 lambda =    1.000000
                     rc =    4.280232
                 energy =   -0.512466
                kinetic =    3.598849
    potential(screened) =   -4.111315
       potential(ionic) =   -9.550563

   izeta = 2
                 rmatch =    2.941647
              splitnorm =    0.150000
                 energy =   -0.292244
                kinetic =    5.357522
    potential(screened) =   -5.649767
       potential(ionic) =  -11.693436

POLgen: Perturbative polarization orbital with L=  2

POLgen: Polarization orbital for state 2p

   izeta = 1
                     rc =    4.280232
                 energy =    1.826084
                kinetic =    3.687342
    potential(screened) =   -1.861257
       potential(ionic) =   -6.363951
atom: Total number of Sankey-type orbitals: 13

atm_pop: Valence configuration (for local Pseudopot. screening):
 2s( 2.00)                                                            
 2p( 3.00)                                                            
Vna: chval, zval:    5.00000   5.00000

Vna:  Cut-off radius for the neutral-atom potential:   4.280232

atom: _________________________________________________________________________

prinput: Basis input ----------------------------------------------------------

PAO.BasisType split     

%block ChemicalSpeciesLabel
    1    5 B                       # Species index, atomic number, species label
    2    7 N                       # Species index, atomic number, species label
%endblock ChemicalSpeciesLabel

%block PAO.Basis                 # Define Basis set
B                     2                    # Species label, number of l-shells
 n=2   0   2                         # n, l, Nzeta 
   4.906      4.170   
   1.000      1.000   
 n=2   1   2 P   1                   # n, l, Nzeta, Polarization, NzetaPol
   5.700      4.276   
   1.000      1.000   
N                     2                    # Species label, number of l-shells
 n=2   0   2                         # n, l, Nzeta 
   3.684      2.905   
   1.000      1.000   
 n=2   1   2 P   1                   # n, l, Nzeta, Polarization, NzetaPol
   4.280      2.942   
   1.000      1.000   
%endblock PAO.Basis

prinput: ----------------------------------------------------------------------

coor:   Atomic-coordinates input format  =     Cartesian coordinates
coor:                                          (in Angstroms)

siesta: Atomic coordinates (Bohr) and species
siesta:      0.00000   2.69415   0.00000  1        1
siesta:      0.00000   5.38829   0.00000  2        2
siesta:      0.00000   6.73536   2.33320  1        3
siesta:      0.00000   9.42951   2.33320  2        4
siesta:      0.00000  10.77658   4.66640  1        5
siesta:      0.00000  13.47073   4.66640  2        6
siesta:      0.00000  14.81780   6.99960  1        7
siesta:      0.00000  17.51195   6.99960  2        8
siesta:      0.00000  18.85902   9.33279  1        9
siesta:      0.00000  21.55317   9.33279  2       10
siesta:      0.00000  22.90024  11.66599  1       11
siesta:      0.00000  25.59439  11.66599  2       12
siesta:      0.00000  26.94146  13.99919  1       13
siesta:      0.00000  29.63560  13.99919  2       14
siesta:      0.00000  30.98268  16.33239  1       15
siesta:      0.00000  33.67682  16.33239  2       16
siesta:      0.00000  35.02390  18.66559  1       17
siesta:      0.00000  37.71804  18.66559  2       18
siesta:      0.00000  39.06511  20.99879  1       19
siesta:      0.00000  41.75926  20.99879  2       20
siesta:      0.00000  43.10633  23.33199  1       21
siesta:      0.00000  45.80048  23.33199  2       22
siesta:      0.00000  47.14755  25.66519  1       23
siesta:      0.00000  49.84170  25.66519  2       24
siesta:      0.00000  51.18877  27.99838  1       25
siesta:      0.00000  53.88292  27.99838  2       26
siesta:      0.00000  55.22999  30.33158  1       27
siesta:      0.00000  57.92414  30.33158  2       28
siesta:      0.00000  59.27121  32.66478  1       29
siesta:      0.00000  61.96535  32.66478  2       30
siesta:      0.00000  63.31243  34.99798  1       31
siesta:      0.00000  66.00657  34.99798  2       32
siesta:      0.00000  67.35365  37.33118  1       33
siesta:      0.00000  70.04779  37.33118  2       34
siesta:      0.00000  71.39486  39.66438  1       35
siesta:      0.00000  74.08901  39.66438  2       36
siesta:      0.00000  75.43608  41.99758  1       37
siesta:      0.00000  78.13023  41.99758  2       38
siesta:      0.00000  79.47730  44.33078  1       39
siesta:      0.00000  82.17145  44.33078  2       40
siesta:      0.00000  83.51852  46.66397  1       41
siesta:      0.00000  86.21267  46.66397  2       42
siesta:      0.00000  87.55974  48.99717  1       43
siesta:      0.00000  90.25388  48.99717  2       44
siesta:      0.00000  91.60096  51.33037  1       45
siesta:      0.00000  94.29510  51.33037  2       46
siesta:      0.00000  95.64218  53.66357  1       47
siesta:      0.00000  98.33632  53.66357  2       48
siesta:      0.00000  99.68340  55.99677  1       49
siesta:      0.00000 102.37754  55.99677  2       50
siesta:      0.00000 103.72461  58.32997  1       51
siesta:      0.00000 106.41876  58.32997  2       52
siesta:      0.00000 107.76583  60.66317  1       53
siesta:      0.00000 110.45998  60.66317  2       54
siesta:      0.00000 111.80705  62.99637  1       55
siesta:      0.00000 114.50120  62.99637  2       56
siesta:      0.00000 115.84827  65.32956  1       57
siesta:      0.00000 118.54242  65.32956  2       58
siesta:      0.00000 119.88949  67.66276  1       59
siesta:      0.00000 122.58363  67.66276  2       60
siesta:      0.00000 123.93071  69.99596  1       61
siesta:      0.00000 126.62485  69.99596  2       62
siesta:      0.00000 127.97193  72.32916  1       63
siesta:      0.00000 130.66607  72.32916  2       64
siesta:      0.00000   6.73536  -2.33320  1       65
siesta:      0.00000   9.42951  -2.33320  2       66
siesta:      0.00000  10.77658   0.00000  1       67
siesta:      0.00000  13.47073   0.00000  2       68
siesta:      0.00000  14.81780   2.33320  1       69
siesta:      0.00000  17.51195   2.33320  2       70
siesta:      0.00000  18.85902   4.66640  1       71
siesta:      0.00000  21.55317   4.66640  2       72
siesta:      0.00000  22.90024   6.99960  1       73
siesta:      0.00000  25.59439   6.99960  2       74
siesta:      0.00000  26.94146   9.33279  1       75
siesta:      0.00000  29.63560   9.33279  2       76
siesta:      0.00000  30.98268  11.66599  1       77
siesta:      0.00000  33.67682  11.66599  2       78
siesta:      0.00000  35.02390  13.99919  1       79
siesta:      0.00000  37.71804  13.99919  2       80
siesta:      0.00000  39.06511  16.33239  1       81
siesta:      0.00000  41.75926  16.33239  2       82
siesta:      0.00000  43.10633  18.66559  1       83
siesta:      0.00000  45.80048  18.66559  2       84
siesta:      0.00000  47.14755  20.99879  1       85
siesta:      0.00000  49.84170  20.99879  2       86
siesta:      0.00000  51.18877  23.33199  1       87
siesta:      0.00000  53.88292  23.33199  2       88
siesta:      0.00000  55.22999  25.66519  1       89
siesta:      0.00000  57.92414  25.66519  2       90
siesta:      0.00000  59.27121  27.99838  1       91
siesta:      0.00000  61.96535  27.99838  2       92
siesta:      0.00000  63.31243  30.33158  1       93
siesta:      0.00000  66.00657  30.33158  2       94
siesta:      0.00000  67.35365  32.66478  1       95
siesta:      0.00000  70.04779  32.66478  2       96
siesta:      0.00000  71.39486  34.99798  1       97
siesta:      0.00000  74.08901  34.99798  2       98
siesta:      0.00000  75.43608  37.33118  1       99
siesta:      0.00000  78.13023  37.33118  2      100
siesta:      0.00000  79.47730  39.66438  1      101
siesta:      0.00000  82.17145  39.66438  2      102
siesta:      0.00000  83.51852  41.99758  1      103
siesta:      0.00000  86.21267  41.99758  2      104
siesta:      0.00000  87.55974  44.33078  1      105
siesta:      0.00000  90.25388  44.33078  2      106
siesta:      0.00000  91.60096  46.66397  1      107
siesta:      0.00000  94.29510  46.66397  2      108
siesta:      0.00000  95.64218  48.99717  1      109
siesta:      0.00000  98.33632  48.99717  2      110
siesta:      0.00000  99.68340  51.33037  1      111
siesta:      0.00000 102.37754  51.33037  2      112
siesta:      0.00000 103.72461  53.66357  1      113
siesta:      0.00000 106.41876  53.66357  2      114
siesta:      0.00000 107.76583  55.99677  1      115
siesta:      0.00000 110.45998  55.99677  2      116
siesta:      0.00000 111.80705  58.32997  1      117
siesta:      0.00000 114.50120  58.32997  2      118
siesta:      0.00000 115.84827  60.66317  1      119
siesta:      0.00000 118.54242  60.66317  2      120
siesta:      0.00000 119.88949  62.99637  1      121
siesta:      0.00000 122.58363  62.99637  2      122
siesta:      0.00000 123.93071  65.32956  1      123
siesta:      0.00000 126.62485  65.32956  2      124
siesta:      0.00000 127.97193  67.66276  1      125
siesta:      0.00000 130.66607  67.66276  2      126
siesta:      0.00000 132.01314  69.99596  1      127
siesta:      0.00000 134.70729  69.99596  2      128
siesta:      0.00000  10.77658  -4.66640  1      129
siesta:      0.00000  13.47073  -4.66640  2      130
siesta:      0.00000  14.81780  -2.33320  1      131
siesta:      0.00000  17.51195  -2.33320  2      132
siesta:      0.00000  18.85902   0.00000  1      133
siesta:      0.00000  21.55317   0.00000  2      134
siesta:      0.00000  22.90024   2.33320  1      135
siesta:      0.00000  25.59439   2.33320  2      136
siesta:      0.00000  26.94146   4.66640  1      137
siesta:      0.00000  29.63560   4.66640  2      138
siesta:      0.00000  30.98268   6.99960  1      139
siesta:      0.00000  33.67682   6.99960  2      140
siesta:      0.00000  35.02390   9.33279  1      141
siesta:      0.00000  37.71804   9.33279  2      142
siesta:      0.00000  39.06511  11.66599  1      143
siesta:      0.00000  41.75926  11.66599  2      144
siesta:      0.00000  43.10633  13.99919  1      145
siesta:      0.00000  45.80048  13.99919  2      146
siesta:      0.00000  47.14755  16.33239  1      147
siesta:      0.00000  49.84170  16.33239  2      148
siesta:      0.00000  51.18877  18.66559  1      149
siesta:      0.00000  53.88292  18.66559  2      150
siesta:      0.00000  55.22999  20.99879  1      151
siesta:      0.00000  57.92414  20.99879  2      152
siesta:      0.00000  59.27121  23.33199  1      153
siesta:      0.00000  61.96535  23.33199  2      154
siesta:      0.00000  63.31243  25.66519  1      155
siesta:      0.00000  66.00657  25.66519  2      156
siesta:      0.00000  67.35365  27.99838  1      157
siesta:      0.00000  70.04779  27.99838  2      158
siesta:      0.00000  71.39486  30.33158  1      159
siesta:      0.00000  74.08901  30.33158  2      160
siesta:      0.00000  75.43608  32.66478  1      161
siesta:      0.00000  78.13023  32.66478  2      162
siesta:      0.00000  79.47730  34.99798  1      163
siesta:      0.00000  82.17145  34.99798  2      164
siesta:      0.00000  83.51852  37.33118  1      165
siesta:      0.00000  86.21267  37.33118  2      166
siesta:      0.00000  87.55974  39.66438  1      167
siesta:      0.00000  90.25388  39.66438  2      168
siesta:      0.00000  91.60096  41.99758  1      169
siesta:      0.00000  94.29510  41.99758  2      170
siesta:      0.00000  95.64218  44.33078  1      171
siesta:      0.00000  98.33632  44.33078  2      172
siesta:      0.00000  99.68340  46.66397  1      173
siesta:      0.00000 102.37754  46.66397  2      174
siesta:      0.00000 103.72461  48.99717  1      175
siesta:      0.00000 106.41876  48.99717  2      176
siesta:      0.00000 107.76583  51.33037  1      177
siesta:      0.00000 110.45998  51.33037  2      178
siesta:      0.00000 111.80705  53.66357  1      179
siesta:      0.00000 114.50120  53.66357  2      180
siesta:      0.00000 115.84827  55.99677  1      181
siesta:      0.00000 118.54242  55.99677  2      182
siesta:      0.00000 119.88949  58.32997  1      183
siesta:      0.00000 122.58363  58.32997  2      184
siesta:      0.00000 123.93071  60.66317  1      185
siesta:      0.00000 126.62485  60.66317  2      186
siesta:      0.00000 127.97193  62.99637  1      187
siesta:      0.00000 130.66607  62.99637  2      188
siesta:      0.00000 132.01314  65.32956  1      189
siesta:      0.00000 134.70729  65.32956  2      190
siesta:      0.00000 136.05436  67.66276  1      191
siesta:      0.00000 138.74851  67.66276  2      192
siesta:      0.00000  14.81780  -6.99960  1      193
siesta:      0.00000  17.51195  -6.99960  2      194
siesta:      0.00000  18.85902  -4.66640  1      195
siesta:      0.00000  21.55317  -4.66640  2      196
siesta:      0.00000  22.90024  -2.33320  1      197
siesta:      0.00000  25.59439  -2.33320  2      198
siesta:      0.00000  26.94146   0.00000  1      199
siesta:      0.00000  29.63560   0.00000  2      200
siesta:      0.00000  30.98268   2.33320  1      201
siesta:      0.00000  33.67682   2.33320  2      202
siesta:      0.00000  35.02390   4.66640  1      203
siesta:      0.00000  37.71804   4.66640  2      204
siesta:      0.00000  39.06511   6.99960  1      205
siesta:      0.00000  41.75926   6.99960  2      206
siesta:      0.00000  43.10633   9.33279  1      207
siesta:      0.00000  45.80048   9.33279  2      208
siesta:      0.00000  47.14755  11.66599  1      209
siesta:      0.00000  49.84170  11.66599  2      210
siesta:      0.00000  51.18877  13.99919  1      211
siesta:      0.00000  53.88292  13.99919  2      212
siesta:      0.00000  55.22999  16.33239  1      213
siesta:      0.00000  57.92414  16.33239  2      214
siesta:      0.00000  59.27121  18.66559  1      215
siesta:      0.00000  61.96535  18.66559  2      216
siesta:      0.00000  63.31243  20.99879  1      217
siesta:      0.00000  66.00657  20.99879  2      218
siesta:      0.00000  67.35365  23.33199  1      219
siesta:      0.00000  70.04779  23.33199  2      220
siesta:      0.00000  71.39486  25.66519  1      221
siesta:      0.00000  74.08901  25.66519  2      222
siesta:      0.00000  75.43608  27.99838  1      223
siesta:      0.00000  78.13023  27.99838  2      224
siesta:      0.00000  79.47730  30.33158  1      225
siesta:      0.00000  82.17145  30.33158  2      226
siesta:      0.00000  83.51852  32.66478  1      227
siesta:      0.00000  86.21267  32.66478  2      228
siesta:      0.00000  87.55974  34.99798  1      229
siesta:      0.00000  90.25388  34.99798  2      230
siesta:      0.00000  91.60096  37.33118  1      231
siesta:      0.00000  94.29510  37.33118  2      232
siesta:      0.00000  95.64218  39.66438  1      233
siesta:      0.00000  98.33632  39.66438  2      234
siesta:      0.00000  99.68340  41.99758  1      235
siesta:      0.00000 102.37754  41.99758  2      236
siesta:      0.00000 103.72461  44.33078  1      237
siesta:      0.00000 106.41876  44.33078  2      238
siesta:      0.00000 107.76583  46.66397  1      239
siesta:      0.00000 110.45998  46.66397  2      240
siesta:      0.00000 111.80705  48.99717  1      241
siesta:      0.00000 114.50120  48.99717  2      242
siesta:      0.00000 115.84827  51.33037  1      243
siesta:      0.00000 118.54242  51.33037  2      244
siesta:      0.00000 119.88949  53.66357  1      245
siesta:      0.00000 122.58363  53.66357  2      246
siesta:      0.00000 123.93071  55.99677  1      247
siesta:      0.00000 126.62485  55.99677  2      248
siesta:      0.00000 127.97193  58.32997  1      249
siesta:      0.00000 130.66607  58.32997  2      250
siesta:      0.00000 132.01314  60.66317  1      251
siesta:      0.00000 134.70729  60.66317  2      252
siesta:      0.00000 136.05436  62.99637  1      253
siesta:      0.00000 138.74851  62.99637  2      254
siesta:      0.00000 140.09558  65.32956  1      255
siesta:      0.00000 142.78973  65.32956  2      256
siesta:      0.00000  18.85902  -9.33279  1      257
siesta:      0.00000  21.55317  -9.33279  2      258
siesta:      0.00000  22.90024  -6.99960  1      259
siesta:      0.00000  25.59439  -6.99960  2      260
siesta:      0.00000  26.94146  -4.66640  1      261
siesta:      0.00000  29.63560  -4.66640  2      262
siesta:      0.00000  30.98268  -2.33320  1      263
siesta:      0.00000  33.67682  -2.33320  2      264
siesta:      0.00000  35.02390   0.00000  1      265
siesta:      0.00000  37.71804   0.00000  2      266
siesta:      0.00000  39.06511   2.33320  1      267
siesta:      0.00000  41.75926   2.33320  2      268
siesta:      0.00000  43.10633   4.66640  1      269
siesta:      0.00000  45.80048   4.66640  2      270
siesta:      0.00000  47.14755   6.99960  1      271
siesta:      0.00000  49.84170   6.99960  2      272
siesta:      0.00000  51.18877   9.33279  1      273
siesta:      0.00000  53.88292   9.33279  2      274
siesta:      0.00000  55.22999  11.66599  1      275
siesta:      0.00000  57.92414  11.66599  2      276
siesta:      0.00000  59.27121  13.99919  1      277
siesta:      0.00000  61.96535  13.99919  2      278
siesta:      0.00000  63.31243  16.33239  1      279
siesta:      0.00000  66.00657  16.33239  2      280
siesta:      0.00000  67.35365  18.66559  1      281
siesta:      0.00000  70.04779  18.66559  2      282
siesta:      0.00000  71.39486  20.99879  1      283
siesta:      0.00000  74.08901  20.99879  2      284
siesta:      0.00000  75.43608  23.33199  1      285
siesta:      0.00000  78.13023  23.33199  2      286
siesta:      0.00000  79.47730  25.66519  1      287
siesta:      0.00000  82.17145  25.66519  2      288
siesta:      0.00000  83.51852  27.99838  1      289
siesta:      0.00000  86.21267  27.99838  2      290
siesta:      0.00000  87.55974  30.33158  1      291
siesta:      0.00000  90.25388  30.33158  2      292
siesta:      0.00000  91.60096  32.66478  1      293
siesta:      0.00000  94.29510  32.66478  2      294
siesta:      0.00000  95.64218  34.99798  1      295
siesta:      0.00000  98.33632  34.99798  2      296
siesta:      0.00000  99.68340  37.33118  1      297
siesta:      0.00000 102.37754  37.33118  2      298
siesta:      0.00000 103.72461  39.66438  1      299
siesta:      0.00000 106.41876  39.66438  2      300
siesta:      0.00000 107.76583  41.99758  1      301
siesta:      0.00000 110.45998  41.99758  2      302
siesta:      0.00000 111.80705  44.33078  1      303
siesta:      0.00000 114.50120  44.33078  2      304
siesta:      0.00000 115.84827  46.66397  1      305
siesta:      0.00000 118.54242  46.66397  2      306
siesta:      0.00000 119.88949  48.99717  1      307
siesta:      0.00000 122.58363  48.99717  2      308
siesta:      0.00000 123.93071  51.33037  1      309
siesta:      0.00000 126.62485  51.33037  2      310
siesta:      0.00000 127.97193  53.66357  1      311
siesta:      0.00000 130.66607  53.66357  2      312
siesta:      0.00000 132.01314  55.99677  1      313
siesta:      0.00000 134.70729  55.99677  2      314
siesta:      0.00000 136.05436  58.32997  1      315
siesta:      0.00000 138.74851  58.32997  2      316
siesta:      0.00000 140.09558  60.66317  1      317
siesta:      0.00000 142.78973  60.66317  2      318
siesta:      0.00000 144.13680  62.99637  1      319
siesta:      0.00000 146.83095  62.99637  2      320
siesta:      0.00000  22.90024 -11.66599  1      321
siesta:      0.00000  25.59439 -11.66599  2      322
siesta:      0.00000  26.94146  -9.33279  1      323
siesta:      0.00000  29.63560  -9.33279  2      324
siesta:      0.00000  30.98268  -6.99960  1      325
siesta:      0.00000  33.67682  -6.99960  2      326
siesta:      0.00000  35.02390  -4.66640  1      327
siesta:      0.00000  37.71804  -4.66640  2      328
siesta:      0.00000  39.06511  -2.33320  1      329
siesta:      0.00000  41.75926  -2.33320  2      330
siesta:      0.00000  43.10633   0.00000  1      331
siesta:      0.00000  45.80048   0.00000  2      332
siesta:      0.00000  47.14755   2.33320  1      333
siesta:      0.00000  49.84170   2.33320  2      334
siesta:      0.00000  51.18877   4.66640  1      335
siesta:      0.00000  53.88292   4.66640  2      336
siesta:      0.00000  55.22999   6.99960  1      337
siesta:      0.00000  57.92414   6.99960  2      338
siesta:      0.00000  59.27121   9.33279  1      339
siesta:      0.00000  61.96535   9.33279  2      340
siesta:      0.00000  63.31243  11.66599  1      341
siesta:      0.00000  66.00657  11.66599  2      342
siesta:      0.00000  67.35365  13.99919  1      343
siesta:      0.00000  70.04779  13.99919  2      344
siesta:      0.00000  71.39486  16.33239  1      345
siesta:      0.00000  74.08901  16.33239  2      346
siesta:      0.00000  75.43608  18.66559  1      347
siesta:      0.00000  78.13023  18.66559  2      348
siesta:      0.00000  79.47730  20.99879  1      349
siesta:      0.00000  82.17145  20.99879  2      350
siesta:      0.00000  83.51852  23.33199  1      351
siesta:      0.00000  86.21267  23.33199  2      352
siesta:      0.00000  87.55974  25.66519  1      353
siesta:      0.00000  90.25388  25.66519  2      354
siesta:      0.00000  91.60096  27.99838  1      355
siesta:      0.00000  94.29510  27.99838  2      356
siesta:      0.00000  95.64218  30.33158  1      357
siesta:      0.00000  98.33632  30.33158  2      358
siesta:      0.00000  99.68340  32.66478  1      359
siesta:      0.00000 102.37754  32.66478  2      360
siesta:      0.00000 103.72461  34.99798  1      361
siesta:      0.00000 106.41876  34.99798  2      362
siesta:      0.00000 107.76583  37.33118  1      363
siesta:      0.00000 110.45998  37.33118  2      364
siesta:      0.00000 111.80705  39.66438  1      365
siesta:      0.00000 114.50120  39.66438  2      366
siesta:      0.00000 115.84827  41.99758  1      367
siesta:      0.00000 118.54242  41.99758  2      368
siesta:      0.00000 119.88949  44.33078  1      369
siesta:      0.00000 122.58363  44.33078  2      370
siesta:      0.00000 123.93071  46.66397  1      371
siesta:      0.00000 126.62485  46.66397  2      372
siesta:      0.00000 127.97193  48.99717  1      373
siesta:      0.00000 130.66607  48.99717  2      374
siesta:      0.00000 132.01314  51.33037  1      375
siesta:      0.00000 134.70729  51.33037  2      376
siesta:      0.00000 136.05436  53.66357  1      377
siesta:      0.00000 138.74851  53.66357  2      378
siesta:      0.00000 140.09558  55.99677  1      379
siesta:      0.00000 142.78973  55.99677  2      380
siesta:      0.00000 144.13680  58.32997  1      381
siesta:      0.00000 146.83095  58.32997  2      382
siesta:      0.00000 148.17802  60.66317  1      383
siesta:      0.00000 150.87217  60.66317  2      384
siesta:      0.00000  26.94146 -13.99919  1      385
siesta:      0.00000  29.63560 -13.99919  2      386
siesta:      0.00000  30.98268 -11.66599  1      387
siesta:      0.00000  33.67682 -11.66599  2      388
siesta:      0.00000  35.02390  -9.33279  1      389
siesta:      0.00000  37.71804  -9.33279  2      390
siesta:      0.00000  39.06511  -6.99960  1      391
siesta:      0.00000  41.75926  -6.99960  2      392
siesta:      0.00000  43.10633  -4.66640  1      393
siesta:      0.00000  45.80048  -4.66640  2      394
siesta:      0.00000  47.14755  -2.33320  1      395
siesta:      0.00000  49.84170  -2.33320  2      396
siesta:      0.00000  51.18877   0.00000  1      397
siesta:      0.00000  53.88292   0.00000  2      398
siesta:      0.00000  55.22999   2.33320  1      399
siesta:      0.00000  57.92414   2.33320  2      400
siesta:      0.00000  59.27121   4.66640  1      401
siesta:      0.00000  61.96535   4.66640  2      402
siesta:      0.00000  63.31243   6.99960  1      403
siesta:      0.00000  66.00657   6.99960  2      404
siesta:      0.00000  67.35365   9.33279  1      405
siesta:      0.00000  70.04779   9.33279  2      406
siesta:      0.00000  71.39486  11.66599  1      407
siesta:      0.00000  74.08901  11.66599  2      408
siesta:      0.00000  75.43608  13.99919  1      409
siesta:      0.00000  78.13023  13.99919  2      410
siesta:      0.00000  79.47730  16.33239  1      411
siesta:      0.00000  82.17145  16.33239  2      412
siesta:      0.00000  83.51852  18.66559  1      413
siesta:      0.00000  86.21267  18.66559  2      414
siesta:      0.00000  87.55974  20.99879  1      415
siesta:      0.00000  90.25388  20.99879  2      416
siesta:      0.00000  91.60096  23.33199  1      417
siesta:      0.00000  94.29510  23.33199  2      418
siesta:      0.00000  95.64218  25.66519  1      419
siesta:      0.00000  98.33632  25.66519  2      420
siesta:      0.00000  99.68340  27.99838  1      421
siesta:      0.00000 102.37754  27.99838  2      422
siesta:      0.00000 103.72461  30.33158  1      423
siesta:      0.00000 106.41876  30.33158  2      424
siesta:      0.00000 107.76583  32.66478  1      425
siesta:      0.00000 110.45998  32.66478  2      426
siesta:      0.00000 111.80705  34.99798  1      427
siesta:      0.00000 114.50120  34.99798  2      428
siesta:      0.00000 115.84827  37.33118  1      429
siesta:      0.00000 118.54242  37.33118  2      430
siesta:      0.00000 119.88949  39.66438  1      431
siesta:      0.00000 122.58363  39.66438  2      432
siesta:      0.00000 123.93071  41.99758  1      433
siesta:      0.00000 126.62485  41.99758  2      434
siesta:      0.00000 127.97193  44.33078  1      435
siesta:      0.00000 130.66607  44.33078  2      436
siesta:      0.00000 132.01314  46.66397  1      437
siesta:      0.00000 134.70729  46.66397  2      438
siesta:      0.00000 136.05436  48.99717  1      439
siesta:      0.00000 138.74851  48.99717  2      440
siesta:      0.00000 140.09558  51.33037  1      441
siesta:      0.00000 142.78973  51.33037  2      442
siesta:      0.00000 144.13680  53.66357  1      443
siesta:      0.00000 146.83095  53.66357  2      444
siesta:      0.00000 148.17802  55.99677  1      445
siesta:      0.00000 150.87217  55.99677  2      446
siesta:      0.00000 152.21924  58.32997  1      447
siesta:      0.00000 154.91338  58.32997  2      448
siesta:      0.00000  30.98268 -16.33239  1      449
siesta:      0.00000  33.67682 -16.33239  2      450
siesta:      0.00000  35.02390 -13.99919  1      451
siesta:      0.00000  37.71804 -13.99919  2      452
siesta:      0.00000  39.06511 -11.66599  1      453
siesta:      0.00000  41.75926 -11.66599  2      454
siesta:      0.00000  43.10633  -9.33279  1      455
siesta:      0.00000  45.80048  -9.33279  2      456
siesta:      0.00000  47.14755  -6.99960  1      457
siesta:      0.00000  49.84170  -6.99960  2      458
siesta:      0.00000  51.18877  -4.66640  1      459
siesta:      0.00000  53.88292  -4.66640  2      460
siesta:      0.00000  55.22999  -2.33320  1      461
siesta:      0.00000  57.92414  -2.33320  2      462
siesta:      0.00000  59.27121   0.00000  1      463
siesta:      0.00000  61.96535   0.00000  2      464
siesta:      0.00000  63.31243   2.33320  1      465
siesta:      0.00000  66.00657   2.33320  2      466
siesta:      0.00000  67.35365   4.66640  1      467
siesta:      0.00000  70.04779   4.66640  2      468
siesta:      0.00000  71.39486   6.99960  1      469
siesta:      0.00000  74.08901   6.99960  2      470
siesta:      0.00000  75.43608   9.33279  1      471
siesta:      0.00000  78.13023   9.33279  2      472
siesta:      0.00000  79.47730  11.66599  1      473
siesta:      0.00000  82.17145  11.66599  2      474
siesta:      0.00000  83.51852  13.99919  1      475
siesta:      0.00000  86.21267  13.99919  2      476
siesta:      0.00000  87.55974  16.33239  1      477
siesta:      0.00000  90.25388  16.33239  2      478
siesta:      0.00000  91.60096  18.66559  1      479
siesta:      0.00000  94.29510  18.66559  2      480
siesta:      0.00000  95.64218  20.99879  1      481
siesta:      0.00000  98.33632  20.99879  2      482
siesta:      0.00000  99.68340  23.33199  1      483
siesta:      0.00000 102.37754  23.33199  2      484
siesta:      0.00000 103.72461  25.66519  1      485
siesta:      0.00000 106.41876  25.66519  2      486
siesta:      0.00000 107.76583  27.99838  1      487
siesta:      0.00000 110.45998  27.99838  2      488
siesta:      0.00000 111.80705  30.33158  1      489
siesta:      0.00000 114.50120  30.33158  2      490
siesta:      0.00000 115.84827  32.66478  1      491
siesta:      0.00000 118.54242  32.66478  2      492
siesta:      0.00000 119.88949  34.99798  1      493
siesta:      0.00000 122.58363  34.99798  2      494
siesta:      0.00000 123.93071  37.33118  1      495
siesta:      0.00000 126.62485  37.33118  2      496
siesta:      0.00000 127.97193  39.66438  1      497
siesta:      0.00000 130.66607  39.66438  2      498
siesta:      0.00000 132.01314  41.99758  1      499
siesta:      0.00000 134.70729  41.99758  2      500
siesta:      0.00000 136.05436  44.33078  1      501
siesta:      0.00000 138.74851  44.33078  2      502
siesta:      0.00000 140.09558  46.66397  1      503
siesta:      0.00000 142.78973  46.66397  2      504
siesta:      0.00000 144.13680  48.99717  1      505
siesta:      0.00000 146.83095  48.99717  2      506
siesta:      0.00000 148.17802  51.33037  1      507
siesta:      0.00000 150.87217  51.33037  2      508
siesta:      0.00000 152.21924  53.66357  1      509
siesta:      0.00000 154.91338  53.66357  2      510
siesta:      0.00000 156.26046  55.99677  1      511
siesta:      0.00000 158.95460  55.99677  2      512
siesta:      0.00000  35.02390 -18.66559  1      513
siesta:      0.00000  37.71804 -18.66559  2      514
siesta:      0.00000  39.06511 -16.33239  1      515
siesta:      0.00000  41.75926 -16.33239  2      516
siesta:      0.00000  43.10633 -13.99919  1      517
siesta:      0.00000  45.80048 -13.99919  2      518
siesta:      0.00000  47.14755 -11.66599  1      519
siesta:      0.00000  49.84170 -11.66599  2      520
siesta:      0.00000  51.18877  -9.33279  1      521
siesta:      0.00000  53.88292  -9.33279  2      522
siesta:      0.00000  55.22999  -6.99960  1      523
siesta:      0.00000  57.92414  -6.99960  2      524
siesta:      0.00000  59.27121  -4.66640  1      525
siesta:      0.00000  61.96535  -4.66640  2      526
siesta:      0.00000  63.31243  -2.33320  1      527
siesta:      0.00000  66.00657  -2.33320  2      528
siesta:      0.00000  67.35365   0.00000  1      529
siesta:      0.00000  70.04779   0.00000  2      530
siesta:      0.00000  71.39486   2.33320  1      531
siesta:      0.00000  74.08901   2.33320  2      532
siesta:      0.00000  75.43608   4.66640  1      533
siesta:      0.00000  78.13023   4.66640  2      534
siesta:      0.00000  79.47730   6.99960  1      535
siesta:      0.00000  82.17145   6.99960  2      536
siesta:      0.00000  83.51852   9.33279  1      537
siesta:      0.00000  86.21267   9.33279  2      538
siesta:      0.00000  87.55974  11.66599  1      539
siesta:      0.00000  90.25388  11.66599  2      540
siesta:      0.00000  91.60096  13.99919  1      541
siesta:      0.00000  94.29510  13.99919  2      542
siesta:      0.00000  95.64218  16.33239  1      543
siesta:      0.00000  98.33632  16.33239  2      544
siesta:      0.00000  99.68340  18.66559  1      545
siesta:      0.00000 102.37754  18.66559  2      546
siesta:      0.00000 103.72461  20.99879  1      547
siesta:      0.00000 106.41876  20.99879  2      548
siesta:      0.00000 107.76583  23.33199  1      549
siesta:      0.00000 110.45998  23.33199  2      550
siesta:      0.00000 111.80705  25.66519  1      551
siesta:      0.00000 114.50120  25.66519  2      552
siesta:      0.00000 115.84827  27.99838  1      553
siesta:      0.00000 118.54242  27.99838  2      554
siesta:      0.00000 119.88949  30.33158  1      555
siesta:      0.00000 122.58363  30.33158  2      556
siesta:      0.00000 123.93071  32.66478  1      557
siesta:      0.00000 126.62485  32.66478  2      558
siesta:      0.00000 127.97193  34.99798  1      559
siesta:      0.00000 130.66607  34.99798  2      560
siesta:      0.00000 132.01314  37.33118  1      561
siesta:      0.00000 134.70729  37.33118  2      562
siesta:      0.00000 136.05436  39.66438  1      563
siesta:      0.00000 138.74851  39.66438  2      564
siesta:      0.00000 140.09558  41.99758  1      565
siesta:      0.00000 142.78973  41.99758  2      566
siesta:      0.00000 144.13680  44.33078  1      567
siesta:      0.00000 146.83095  44.33078  2      568
siesta:      0.00000 148.17802  46.66397  1      569
siesta:      0.00000 150.87217  46.66397  2      570
siesta:      0.00000 152.21924  48.99717  1      571
siesta:      0.00000 154.91338  48.99717  2      572
siesta:      0.00000 156.26046  51.33037  1      573
siesta:      0.00000 158.95460  51.33037  2      574
siesta:      0.00000 160.30168  53.66357  1      575
siesta:      0.00000 162.99582  53.66357  2      576
siesta:      0.00000  39.06511 -20.99879  1      577
siesta:      0.00000  41.75926 -20.99879  2      578
siesta:      0.00000  43.10633 -18.66559  1      579
siesta:      0.00000  45.80048 -18.66559  2      580
siesta:      0.00000  47.14755 -16.33239  1      581
siesta:      0.00000  49.84170 -16.33239  2      582
siesta:      0.00000  51.18877 -13.99919  1      583
siesta:      0.00000  53.88292 -13.99919  2      584
siesta:      0.00000  55.22999 -11.66599  1      585
siesta:      0.00000  57.92414 -11.66599  2      586
siesta:      0.00000  59.27121  -9.33279  1      587
siesta:      0.00000  61.96535  -9.33279  2      588
siesta:      0.00000  63.31243  -6.99960  1      589
siesta:      0.00000  66.00657  -6.99960  2      590
siesta:      0.00000  67.35365  -4.66640  1      591
siesta:      0.00000  70.04779  -4.66640  2      592
siesta:      0.00000  71.39486  -2.33320  1      593
siesta:      0.00000  74.08901  -2.33320  2      594
siesta:      0.00000  75.43608   0.00000  1      595
siesta:      0.00000  78.13023   0.00000  2      596
siesta:      0.00000  79.47730   2.33320  1      597
siesta:      0.00000  82.17145   2.33320  2      598
siesta:      0.00000  83.51852   4.66640  1      599
siesta:      0.00000  86.21267   4.66640  2      600
siesta:      0.00000  87.55974   6.99960  1      601
siesta:      0.00000  90.25388   6.99960  2      602
siesta:      0.00000  91.60096   9.33279  1      603
siesta:      0.00000  94.29510   9.33279  2      604
siesta:      0.00000  95.64218  11.66599  1      605
siesta:      0.00000  98.33632  11.66599  2      606
siesta:      0.00000  99.68340  13.99919  1      607
siesta:      0.00000 102.37754  13.99919  2      608
siesta:      0.00000 103.72461  16.33239  1      609
siesta:      0.00000 106.41876  16.33239  2      610
siesta:      0.00000 107.76583  18.66559  1      611
siesta:      0.00000 110.45998  18.66559  2      612
siesta:      0.00000 111.80705  20.99879  1      613
siesta:      0.00000 114.50120  20.99879  2      614
siesta:      0.00000 115.84827  23.33199  1      615
siesta:      0.00000 118.54242  23.33199  2      616
siesta:      0.00000 119.88949  25.66519  1      617
siesta:      0.00000 122.58363  25.66519  2      618
siesta:      0.00000 123.93071  27.99838  1      619
siesta:      0.00000 126.62485  27.99838  2      620
siesta:      0.00000 127.97193  30.33158  1      621
siesta:      0.00000 130.66607  30.33158  2      622
siesta:      0.00000 132.01314  32.66478  1      623
siesta:      0.00000 134.70729  32.66478  2      624
siesta:      0.00000 136.05436  34.99798  1      625
siesta:      0.00000 138.74851  34.99798  2      626
siesta:      0.00000 140.09558  37.33118  1      627
siesta:      0.00000 142.78973  37.33118  2      628
siesta:      0.00000 144.13680  39.66438  1      629
siesta:      0.00000 146.83095  39.66438  2      630
siesta:      0.00000 148.17802  41.99758  1      631
siesta:      0.00000 150.87217  41.99758  2      632
siesta:      0.00000 152.21924  44.33078  1      633
siesta:      0.00000 154.91338  44.33078  2      634
siesta:      0.00000 156.26046  46.66397  1      635
siesta:      0.00000 158.95460  46.66397  2      636
siesta:      0.00000 160.30168  48.99717  1      637
siesta:      0.00000 162.99582  48.99717  2      638
siesta:      0.00000 164.34289  51.33037  1      639
siesta:      0.00000 167.03704  51.33037  2      640
siesta:      0.00000  43.10633 -23.33199  1      641
siesta:      0.00000  45.80048 -23.33199  2      642
siesta:      0.00000  47.14755 -20.99879  1      643
siesta:      0.00000  49.84170 -20.99879  2      644
siesta:      0.00000  51.18877 -18.66559  1      645
siesta:      0.00000  53.88292 -18.66559  2      646
siesta:      0.00000  55.22999 -16.33239  1      647
siesta:      0.00000  57.92414 -16.33239  2      648
siesta:      0.00000  59.27121 -13.99919  1      649
siesta:      0.00000  61.96535 -13.99919  2      650
siesta:      0.00000  63.31243 -11.66599  1      651
siesta:      0.00000  66.00657 -11.66599  2      652
siesta:      0.00000  67.35365  -9.33279  1      653
siesta:      0.00000  70.04779  -9.33279  2      654
siesta:      0.00000  71.39486  -6.99960  1      655
siesta:      0.00000  74.08901  -6.99960  2      656
siesta:      0.00000  75.43608  -4.66640  1      657
siesta:      0.00000  78.13023  -4.66640  2      658
siesta:      0.00000  79.47730  -2.33320  1      659
siesta:      0.00000  82.17145  -2.33320  2      660
siesta:      0.00000  83.51852   0.00000  1      661
siesta:      0.00000  86.21267   0.00000  2      662
siesta:      0.00000  87.55974   2.33320  1      663
siesta:      0.00000  90.25388   2.33320  2      664
siesta:      0.00000  91.60096   4.66640  1      665
siesta:      0.00000  94.29510   4.66640  2      666
siesta:      0.00000  95.64218   6.99960  1      667
siesta:      0.00000  98.33632   6.99960  2      668
siesta:      0.00000  99.68340   9.33279  1      669
siesta:      0.00000 102.37754   9.33279  2      670
siesta:      0.00000 103.72461  11.66599  1      671
siesta:      0.00000 106.41876  11.66599  2      672
siesta:      0.00000 107.76583  13.99919  1      673
siesta:      0.00000 110.45998  13.99919  2      674
siesta:      0.00000 111.80705  16.33239  1      675
siesta:      0.00000 114.50120  16.33239  2      676
siesta:      0.00000 115.84827  18.66559  1      677
siesta:      0.00000 118.54242  18.66559  2      678
siesta:      0.00000 119.88949  20.99879  1      679
siesta:      0.00000 122.58363  20.99879  2      680
siesta:      0.00000 123.93071  23.33199  1      681
siesta:      0.00000 126.62485  23.33199  2      682
siesta:      0.00000 127.97193  25.66519  1      683
siesta:      0.00000 130.66607  25.66519  2      684
siesta:      0.00000 132.01314  27.99838  1      685
siesta:      0.00000 134.70729  27.99838  2      686
siesta:      0.00000 136.05436  30.33158  1      687
siesta:      0.00000 138.74851  30.33158  2      688
siesta:      0.00000 140.09558  32.66478  1      689
siesta:      0.00000 142.78973  32.66478  2      690
siesta:      0.00000 144.13680  34.99798  1      691
siesta:      0.00000 146.83095  34.99798  2      692
siesta:      0.00000 148.17802  37.33118  1      693
siesta:      0.00000 150.87217  37.33118  2      694
siesta:      0.00000 152.21924  39.66438  1      695
siesta:      0.00000 154.91338  39.66438  2      696
siesta:      0.00000 156.26046  41.99758  1      697
siesta:      0.00000 158.95460  41.99758  2      698
siesta:      0.00000 160.30168  44.33078  1      699
siesta:      0.00000 162.99582  44.33078  2      700
siesta:      0.00000 164.34289  46.66397  1      701
siesta:      0.00000 167.03704  46.66397  2      702
siesta:      0.00000 168.38411  48.99717  1      703
siesta:      0.00000 171.07826  48.99717  2      704
siesta:      0.00000  47.14755 -25.66519  1      705
siesta:      0.00000  49.84170 -25.66519  2      706
siesta:      0.00000  51.18877 -23.33199  1      707
siesta:      0.00000  53.88292 -23.33199  2      708
siesta:      0.00000  55.22999 -20.99879  1      709
siesta:      0.00000  57.92414 -20.99879  2      710
siesta:      0.00000  59.27121 -18.66559  1      711
siesta:      0.00000  61.96535 -18.66559  2      712
siesta:      0.00000  63.31243 -16.33239  1      713
siesta:      0.00000  66.00657 -16.33239  2      714
siesta:      0.00000  67.35365 -13.99919  1      715
siesta:      0.00000  70.04779 -13.99919  2      716
siesta:      0.00000  71.39486 -11.66599  1      717
siesta:      0.00000  74.08901 -11.66599  2      718
siesta:      0.00000  75.43608  -9.33279  1      719
siesta:      0.00000  78.13023  -9.33279  2      720
siesta:      0.00000  79.47730  -6.99960  1      721
siesta:      0.00000  82.17145  -6.99960  2      722
siesta:      0.00000  83.51852  -4.66640  1      723
siesta:      0.00000  86.21267  -4.66640  2      724
siesta:      0.00000  87.55974  -2.33320  1      725
siesta:      0.00000  90.25388  -2.33320  2      726
siesta:      0.00000  91.60096   0.00000  1      727
siesta:      0.00000  94.29510   0.00000  2      728
siesta:      0.00000  95.64218   2.33320  1      729
siesta:      0.00000  98.33632   2.33320  2      730
siesta:      0.00000  99.68340   4.66640  1      731
siesta:      0.00000 102.37754   4.66640  2      732
siesta:      0.00000 103.72461   6.99960  1      733
siesta:      0.00000 106.41876   6.99960  2      734
siesta:      0.00000 107.76583   9.33279  1      735
siesta:      0.00000 110.45998   9.33279  2      736
siesta:      0.00000 111.80705  11.66599  1      737
siesta:      0.00000 114.50120  11.66599  2      738
siesta:      0.00000 115.84827  13.99919  1      739
siesta:      0.00000 118.54242  13.99919  2      740
siesta:      0.00000 119.88949  16.33239  1      741
siesta:      0.00000 122.58363  16.33239  2      742
siesta:      0.00000 123.93071  18.66559  1      743
siesta:      0.00000 126.62485  18.66559  2      744
siesta:      0.00000 127.97193  20.99879  1      745
siesta:      0.00000 130.66607  20.99879  2      746
siesta:      0.00000 132.01314  23.33199  1      747
siesta:      0.00000 134.70729  23.33199  2      748
siesta:      0.00000 136.05436  25.66519  1      749
siesta:      0.00000 138.74851  25.66519  2      750
siesta:      0.00000 140.09558  27.99838  1      751
siesta:      0.00000 142.78973  27.99838  2      752
siesta:      0.00000 144.13680  30.33158  1      753
siesta:      0.00000 146.83095  30.33158  2      754
siesta:      0.00000 148.17802  32.66478  1      755
siesta:      0.00000 150.87217  32.66478  2      756
siesta:      0.00000 152.21924  34.99798  1      757
siesta:      0.00000 154.91338  34.99798  2      758
siesta:      0.00000 156.26046  37.33118  1      759
siesta:      0.00000 158.95460  37.33118  2      760
siesta:      0.00000 160.30168  39.66438  1      761
siesta:      0.00000 162.99582  39.66438  2      762
siesta:      0.00000 164.34289  41.99758  1      763
siesta:      0.00000 167.03704  41.99758  2      764
siesta:      0.00000 168.38411  44.33078  1      765
siesta:      0.00000 171.07826  44.33078  2      766
siesta:      0.00000 172.42533  46.66397  1      767
siesta:      0.00000 175.11948  46.66397  2      768
siesta:      0.00000  51.18877 -27.99838  1      769
siesta:      0.00000  53.88292 -27.99838  2      770
siesta:      0.00000  55.22999 -25.66519  1      771
siesta:      0.00000  57.92414 -25.66519  2      772
siesta:      0.00000  59.27121 -23.33199  1      773
siesta:      0.00000  61.96535 -23.33199  2      774
siesta:      0.00000  63.31243 -20.99879  1      775
siesta:      0.00000  66.00657 -20.99879  2      776
siesta:      0.00000  67.35365 -18.66559  1      777
siesta:      0.00000  70.04779 -18.66559  2      778
siesta:      0.00000  71.39486 -16.33239  1      779
siesta:      0.00000  74.08901 -16.33239  2      780
siesta:      0.00000  75.43608 -13.99919  1      781
siesta:      0.00000  78.13023 -13.99919  2      782
siesta:      0.00000  79.47730 -11.66599  1      783
siesta:      0.00000  82.17145 -11.66599  2      784
siesta:      0.00000  83.51852  -9.33279  1      785
siesta:      0.00000  86.21267  -9.33279  2      786
siesta:      0.00000  87.55974  -6.99960  1      787
siesta:      0.00000  90.25388  -6.99960  2      788
siesta:      0.00000  91.60096  -4.66640  1      789
siesta:      0.00000  94.29510  -4.66640  2      790
siesta:      0.00000  95.64218  -2.33320  1      791
siesta:      0.00000  98.33632  -2.33320  2      792
siesta:      0.00000  99.68340   0.00000  1      793
siesta:      0.00000 102.37754   0.00000  2      794
siesta:      0.00000 103.72461   2.33320  1      795
siesta:      0.00000 106.41876   2.33320  2      796
siesta:      0.00000 107.76583   4.66640  1      797
siesta:      0.00000 110.45998   4.66640  2      798
siesta:      0.00000 111.80705   6.99960  1      799
siesta:      0.00000 114.50120   6.99960  2      800
siesta:      0.00000 115.84827   9.33279  1      801
siesta:      0.00000 118.54242   9.33279  2      802
siesta:      0.00000 119.88949  11.66599  1      803
siesta:      0.00000 122.58363  11.66599  2      804
siesta:      0.00000 123.93071  13.99919  1      805
siesta:      0.00000 126.62485  13.99919  2      806
siesta:      0.00000 127.97193  16.33239  1      807
siesta:      0.00000 130.66607  16.33239  2      808
siesta:      0.00000 132.01314  18.66559  1      809
siesta:      0.00000 134.70729  18.66559  2      810
siesta:      0.00000 136.05436  20.99879  1      811
siesta:      0.00000 138.74851  20.99879  2      812
siesta:      0.00000 140.09558  23.33199  1      813
siesta:      0.00000 142.78973  23.33199  2      814
siesta:      0.00000 144.13680  25.66519  1      815
siesta:      0.00000 146.83095  25.66519  2      816
siesta:      0.00000 148.17802  27.99838  1      817
siesta:      0.00000 150.87217  27.99838  2      818
siesta:      0.00000 152.21924  30.33158  1      819
siesta:      0.00000 154.91338  30.33158  2      820
siesta:      0.00000 156.26046  32.66478  1      821
siesta:      0.00000 158.95460  32.66478  2      822
siesta:      0.00000 160.30168  34.99798  1      823
siesta:      0.00000 162.99582  34.99798  2      824
siesta:      0.00000 164.34289  37.33118  1      825
siesta:      0.00000 167.03704  37.33118  2      826
siesta:      0.00000 168.38411  39.66438  1      827
siesta:      0.00000 171.07826  39.66438  2      828
siesta:      0.00000 172.42533  41.99758  1      829
siesta:      0.00000 175.11948  41.99758  2      830
siesta:      0.00000 176.46655  44.33078  1      831
siesta:      0.00000 179.16070  44.33078  2      832
siesta:      0.00000  55.22999 -30.33158  1      833
siesta:      0.00000  57.92414 -30.33158  2      834
siesta:      0.00000  59.27121 -27.99838  1      835
siesta:      0.00000  61.96535 -27.99838  2      836
siesta:      0.00000  63.31243 -25.66519  1      837
siesta:      0.00000  66.00657 -25.66519  2      838
siesta:      0.00000  67.35365 -23.33199  1      839
siesta:      0.00000  70.04779 -23.33199  2      840
siesta:      0.00000  71.39486 -20.99879  1      841
siesta:      0.00000  74.08901 -20.99879  2      842
siesta:      0.00000  75.43608 -18.66559  1      843
siesta:      0.00000  78.13023 -18.66559  2      844
siesta:      0.00000  79.47730 -16.33239  1      845
siesta:      0.00000  82.17145 -16.33239  2      846
siesta:      0.00000  83.51852 -13.99919  1      847
siesta:      0.00000  86.21267 -13.99919  2      848
siesta:      0.00000  87.55974 -11.66599  1      849
siesta:      0.00000  90.25388 -11.66599  2      850
siesta:      0.00000  91.60096  -9.33279  1      851
siesta:      0.00000  94.29510  -9.33279  2      852
siesta:      0.00000  95.64218  -6.99960  1      853
siesta:      0.00000  98.33632  -6.99960  2      854
siesta:      0.00000  99.68340  -4.66640  1      855
siesta:      0.00000 102.37754  -4.66640  2      856
siesta:      0.00000 103.72461  -2.33320  1      857
siesta:      0.00000 106.41876  -2.33320  2      858
siesta:      0.00000 107.76583   0.00000  1      859
siesta:      0.00000 110.45998   0.00000  2      860
siesta:      0.00000 111.80705   2.33320  1      861
siesta:      0.00000 114.50120   2.33320  2      862
siesta:      0.00000 115.84827   4.66640  1      863
siesta:      0.00000 118.54242   4.66640  2      864
siesta:      0.00000 119.88949   6.99960  1      865
siesta:      0.00000 122.58363   6.99960  2      866
siesta:      0.00000 123.93071   9.33279  1      867
siesta:      0.00000 126.62485   9.33279  2      868
siesta:      0.00000 127.97193  11.66599  1      869
siesta:      0.00000 130.66607  11.66599  2      870
siesta:      0.00000 132.01314  13.99919  1      871
siesta:      0.00000 134.70729  13.99919  2      872
siesta:      0.00000 136.05436  16.33239  1      873
siesta:      0.00000 138.74851  16.33239  2      874
siesta:      0.00000 140.09558  18.66559  1      875
siesta:      0.00000 142.78973  18.66559  2      876
siesta:      0.00000 144.13680  20.99879  1      877
siesta:      0.00000 146.83095  20.99879  2      878
siesta:      0.00000 148.17802  23.33199  1      879
siesta:      0.00000 150.87217  23.33199  2      880
siesta:      0.00000 152.21924  25.66519  1      881
siesta:      0.00000 154.91338  25.66519  2      882
siesta:      0.00000 156.26046  27.99838  1      883
siesta:      0.00000 158.95460  27.99838  2      884
siesta:      0.00000 160.30168  30.33158  1      885
siesta:      0.00000 162.99582  30.33158  2      886
siesta:      0.00000 164.34289  32.66478  1      887
siesta:      0.00000 167.03704  32.66478  2      888
siesta:      0.00000 168.38411  34.99798  1      889
siesta:      0.00000 171.07826  34.99798  2      890
siesta:      0.00000 172.42533  37.33118  1      891
siesta:      0.00000 175.11948  37.33118  2      892
siesta:      0.00000 176.46655  39.66438  1      893
siesta:      0.00000 179.16070  39.66438  2      894
siesta:      0.00000 180.50777  41.99758  1      895
siesta:      0.00000 183.20192  41.99758  2      896
siesta:      0.00000  59.27121 -32.66478  1      897
siesta:      0.00000  61.96535 -32.66478  2      898
siesta:      0.00000  63.31243 -30.33158  1      899
siesta:      0.00000  66.00657 -30.33158  2      900
siesta:      0.00000  67.35365 -27.99838  1      901
siesta:      0.00000  70.04779 -27.99838  2      902
siesta:      0.00000  71.39486 -25.66519  1      903
siesta:      0.00000  74.08901 -25.66519  2      904
siesta:      0.00000  75.43608 -23.33199  1      905
siesta:      0.00000  78.13023 -23.33199  2      906
siesta:      0.00000  79.47730 -20.99879  1      907
siesta:      0.00000  82.17145 -20.99879  2      908
siesta:      0.00000  83.51852 -18.66559  1      909
siesta:      0.00000  86.21267 -18.66559  2      910
siesta:      0.00000  87.55974 -16.33239  1      911
siesta:      0.00000  90.25388 -16.33239  2      912
siesta:      0.00000  91.60096 -13.99919  1      913
siesta:      0.00000  94.29510 -13.99919  2      914
siesta:      0.00000  95.64218 -11.66599  1      915
siesta:      0.00000  98.33632 -11.66599  2      916
siesta:      0.00000  99.68340  -9.33279  1      917
siesta:      0.00000 102.37754  -9.33279  2      918
siesta:      0.00000 103.72461  -6.99960  1      919
siesta:      0.00000 106.41876  -6.99960  2      920
siesta:      0.00000 107.76583  -4.66640  1      921
siesta:      0.00000 110.45998  -4.66640  2      922
siesta:      0.00000 111.80705  -2.33320  1      923
siesta:      0.00000 114.50120  -2.33320  2      924
siesta:      0.00000 115.84827   0.00000  1      925
siesta:      0.00000 118.54242   0.00000  2      926
siesta:      0.00000 119.88949   2.33320  1      927
siesta:      0.00000 122.58363   2.33320  2      928
siesta:      0.00000 123.93071   4.66640  1      929
siesta:      0.00000 126.62485   4.66640  2      930
siesta:      0.00000 127.97193   6.99960  1      931
siesta:      0.00000 130.66607   6.99960  2      932
siesta:      0.00000 132.01314   9.33279  1      933
siesta:      0.00000 134.70729   9.33279  2      934
siesta:      0.00000 136.05436  11.66599  1      935
siesta:      0.00000 138.74851  11.66599  2      936
siesta:      0.00000 140.09558  13.99919  1      937
siesta:      0.00000 142.78973  13.99919  2      938
siesta:      0.00000 144.13680  16.33239  1      939
siesta:      0.00000 146.83095  16.33239  2      940
siesta:      0.00000 148.17802  18.66559  1      941
siesta:      0.00000 150.87217  18.66559  2      942
siesta:      0.00000 152.21924  20.99879  1      943
siesta:      0.00000 154.91338  20.99879  2      944
siesta:      0.00000 156.26046  23.33199  1      945
siesta:      0.00000 158.95460  23.33199  2      946
siesta:      0.00000 160.30168  25.66519  1      947
siesta:      0.00000 162.99582  25.66519  2      948
siesta:      0.00000 164.34289  27.99838  1      949
siesta:      0.00000 167.03704  27.99838  2      950
siesta:      0.00000 168.38411  30.33158  1      951
siesta:      0.00000 171.07826  30.33158  2      952
siesta:      0.00000 172.42533  32.66478  1      953
siesta:      0.00000 175.11948  32.66478  2      954
siesta:      0.00000 176.46655  34.99798  1      955
siesta:      0.00000 179.16070  34.99798  2      956
siesta:      0.00000 180.50777  37.33118  1      957
siesta:      0.00000 183.20192  37.33118  2      958
siesta:      0.00000 184.54899  39.66438  1      959
siesta:      0.00000 187.24313  39.66438  2      960
siesta:      0.00000  63.31243 -34.99798  1      961
siesta:      0.00000  66.00657 -34.99798  2      962
siesta:      0.00000  67.35365 -32.66478  1      963
siesta:      0.00000  70.04779 -32.66478  2      964
siesta:      0.00000  71.39486 -30.33158  1      965
siesta:      0.00000  74.08901 -30.33158  2      966
siesta:      0.00000  75.43608 -27.99838  1      967
siesta:      0.00000  78.13023 -27.99838  2      968
siesta:      0.00000  79.47730 -25.66519  1      969
siesta:      0.00000  82.17145 -25.66519  2      970
siesta:      0.00000  83.51852 -23.33199  1      971
siesta:      0.00000  86.21267 -23.33199  2      972
siesta:      0.00000  87.55974 -20.99879  1      973
siesta:      0.00000  90.25388 -20.99879  2      974
siesta:      0.00000  91.60096 -18.66559  1      975
siesta:      0.00000  94.29510 -18.66559  2      976
siesta:      0.00000  95.64218 -16.33239  1      977
siesta:      0.00000  98.33632 -16.33239  2      978
siesta:      0.00000  99.68340 -13.99919  1      979
siesta:      0.00000 102.37754 -13.99919  2      980
siesta:      0.00000 103.72461 -11.66599  1      981
siesta:      0.00000 106.41876 -11.66599  2      982
siesta:      0.00000 107.76583  -9.33279  1      983
siesta:      0.00000 110.45998  -9.33279  2      984
siesta:      0.00000 111.80705  -6.99960  1      985
siesta:      0.00000 114.50120  -6.99960  2      986
siesta:      0.00000 115.84827  -4.66640  1      987
siesta:      0.00000 118.54242  -4.66640  2      988
siesta:      0.00000 119.88949  -2.33320  1      989
siesta:      0.00000 122.58363  -2.33320  2      990
siesta:      0.00000 123.93071   0.00000  1      991
siesta:      0.00000 126.62485   0.00000  2      992
siesta:      0.00000 127.97193   2.33320  1      993
siesta:      0.00000 130.66607   2.33320  2      994
siesta:      0.00000 132.01314   4.66640  1      995
siesta:      0.00000 134.70729   4.66640  2      996
siesta:      0.00000 136.05436   6.99960  1      997
siesta:      0.00000 138.74851   6.99960  2      998
siesta:      0.00000 140.09558   9.33279  1      999
siesta:      0.00000 142.78973   9.33279  2     1000
siesta:      0.00000 144.13680  11.66599  1     1001
siesta:      0.00000 146.83095  11.66599  2     1002
siesta:      0.00000 148.17802  13.99919  1     1003
siesta:      0.00000 150.87217  13.99919  2     1004
siesta:      0.00000 152.21924  16.33239  1     1005
siesta:      0.00000 154.91338  16.33239  2     1006
siesta:      0.00000 156.26046  18.66559  1     1007
siesta:      0.00000 158.95460  18.66559  2     1008
siesta:      0.00000 160.30168  20.99879  1     1009
siesta:      0.00000 162.99582  20.99879  2     1010
siesta:      0.00000 164.34289  23.33199  1     1011
siesta:      0.00000 167.03704  23.33199  2     1012
siesta:      0.00000 168.38411  25.66519  1     1013
siesta:      0.00000 171.07826  25.66519  2     1014
siesta:      0.00000 172.42533  27.99838  1     1015
siesta:      0.00000 175.11948  27.99838  2     1016
siesta:      0.00000 176.46655  30.33158  1     1017
siesta:      0.00000 179.16070  30.33158  2     1018
siesta:      0.00000 180.50777  32.66478  1     1019
siesta:      0.00000 183.20192  32.66478  2     1020
siesta:      0.00000 184.54899  34.99798  1     1021
siesta:      0.00000 187.24313  34.99798  2     1022
siesta:      0.00000 188.59021  37.33118  1     1023
siesta:      0.00000 191.28435  37.33118  2     1024
siesta:      0.00000  67.35365 -37.33118  1     1025
siesta:      0.00000  70.04779 -37.33118  2     1026
siesta:      0.00000  71.39486 -34.99798  1     1027
siesta:      0.00000  74.08901 -34.99798  2     1028
siesta:      0.00000  75.43608 -32.66478  1     1029
siesta:      0.00000  78.13023 -32.66478  2     1030
siesta:      0.00000  79.47730 -30.33158  1     1031
siesta:      0.00000  82.17145 -30.33158  2     1032
siesta:      0.00000  83.51852 -27.99838  1     1033
siesta:      0.00000  86.21267 -27.99838  2     1034
siesta:      0.00000  87.55974 -25.66519  1     1035
siesta:      0.00000  90.25388 -25.66519  2     1036
siesta:      0.00000  91.60096 -23.33199  1     1037
siesta:      0.00000  94.29510 -23.33199  2     1038
siesta:      0.00000  95.64218 -20.99879  1     1039
siesta:      0.00000  98.33632 -20.99879  2     1040
siesta:      0.00000  99.68340 -18.66559  1     1041
siesta:      0.00000 102.37754 -18.66559  2     1042
siesta:      0.00000 103.72461 -16.33239  1     1043
siesta:      0.00000 106.41876 -16.33239  2     1044
siesta:      0.00000 107.76583 -13.99919  1     1045
siesta:      0.00000 110.45998 -13.99919  2     1046
siesta:      0.00000 111.80705 -11.66599  1     1047
siesta:      0.00000 114.50120 -11.66599  2     1048
siesta:      0.00000 115.84827  -9.33279  1     1049
siesta:      0.00000 118.54242  -9.33279  2     1050
siesta:      0.00000 119.88949  -6.99960  1     1051
siesta:      0.00000 122.58363  -6.99960  2     1052
siesta:      0.00000 123.93071  -4.66640  1     1053
siesta:      0.00000 126.62485  -4.66640  2     1054
siesta:      0.00000 127.97193  -2.33320  1     1055
siesta:      0.00000 130.66607  -2.33320  2     1056
siesta:      0.00000 132.01314   0.00000  1     1057
siesta:      0.00000 134.70729   0.00000  2     1058
siesta:      0.00000 136.05436   2.33320  1     1059
siesta:      0.00000 138.74851   2.33320  2     1060
siesta:      0.00000 140.09558   4.66640  1     1061
siesta:      0.00000 142.78973   4.66640  2     1062
siesta:      0.00000 144.13680   6.99960  1     1063
siesta:      0.00000 146.83095   6.99960  2     1064
siesta:      0.00000 148.17802   9.33279  1     1065
siesta:      0.00000 150.87217   9.33279  2     1066
siesta:      0.00000 152.21924  11.66599  1     1067
siesta:      0.00000 154.91338  11.66599  2     1068
siesta:      0.00000 156.26046  13.99919  1     1069
siesta:      0.00000 158.95460  13.99919  2     1070
siesta:      0.00000 160.30168  16.33239  1     1071
siesta:      0.00000 162.99582  16.33239  2     1072
siesta:      0.00000 164.34289  18.66559  1     1073
siesta:      0.00000 167.03704  18.66559  2     1074
siesta:      0.00000 168.38411  20.99879  1     1075
siesta:      0.00000 171.07826  20.99879  2     1076
siesta:      0.00000 172.42533  23.33199  1     1077
siesta:      0.00000 175.11948  23.33199  2     1078
siesta:      0.00000 176.46655  25.66519  1     1079
siesta:      0.00000 179.16070  25.66519  2     1080
siesta:      0.00000 180.50777  27.99838  1     1081
siesta:      0.00000 183.20192  27.99838  2     1082
siesta:      0.00000 184.54899  30.33158  1     1083
siesta:      0.00000 187.24313  30.33158  2     1084
siesta:      0.00000 188.59021  32.66478  1     1085
siesta:      0.00000 191.28435  32.66478  2     1086
siesta:      0.00000 192.63143  34.99798  1     1087
siesta:      0.00000 195.32557  34.99798  2     1088
siesta:      0.00000  71.39486 -39.66438  1     1089
siesta:      0.00000  74.08901 -39.66438  2     1090
siesta:      0.00000  75.43608 -37.33118  1     1091
siesta:      0.00000  78.13023 -37.33118  2     1092
siesta:      0.00000  79.47730 -34.99798  1     1093
siesta:      0.00000  82.17145 -34.99798  2     1094
siesta:      0.00000  83.51852 -32.66478  1     1095
siesta:      0.00000  86.21267 -32.66478  2     1096
siesta:      0.00000  87.55974 -30.33158  1     1097
siesta:      0.00000  90.25388 -30.33158  2     1098
siesta:      0.00000  91.60096 -27.99838  1     1099
siesta:      0.00000  94.29510 -27.99838  2     1100
siesta:      0.00000  95.64218 -25.66519  1     1101
siesta:      0.00000  98.33632 -25.66519  2     1102
siesta:      0.00000  99.68340 -23.33199  1     1103
siesta:      0.00000 102.37754 -23.33199  2     1104
siesta:      0.00000 103.72461 -20.99879  1     1105
siesta:      0.00000 106.41876 -20.99879  2     1106
siesta:      0.00000 107.76583 -18.66559  1     1107
siesta:      0.00000 110.45998 -18.66559  2     1108
siesta:      0.00000 111.80705 -16.33239  1     1109
siesta:      0.00000 114.50120 -16.33239  2     1110
siesta:      0.00000 115.84827 -13.99919  1     1111
siesta:      0.00000 118.54242 -13.99919  2     1112
siesta:      0.00000 119.88949 -11.66599  1     1113
siesta:      0.00000 122.58363 -11.66599  2     1114
siesta:      0.00000 123.93071  -9.33279  1     1115
siesta:      0.00000 126.62485  -9.33279  2     1116
siesta:      0.00000 127.97193  -6.99960  1     1117
siesta:      0.00000 130.66607  -6.99960  2     1118
siesta:      0.00000 132.01314  -4.66640  1     1119
siesta:      0.00000 134.70729  -4.66640  2     1120
siesta:      0.00000 136.05436  -2.33320  1     1121
siesta:      0.00000 138.74851  -2.33320  2     1122
siesta:      0.00000 140.09558   0.00000  1     1123
siesta:      0.00000 142.78973   0.00000  2     1124
siesta:      0.00000 144.13680   2.33320  1     1125
siesta:      0.00000 146.83095   2.33320  2     1126
siesta:      0.00000 148.17802   4.66640  1     1127
siesta:      0.00000 150.87217   4.66640  2     1128
siesta:      0.00000 152.21924   6.99960  1     1129
siesta:      0.00000 154.91338   6.99960  2     1130
siesta:      0.00000 156.26046   9.33279  1     1131
siesta:      0.00000 158.95460   9.33279  2     1132
siesta:      0.00000 160.30168  11.66599  1     1133
siesta:      0.00000 162.99582  11.66599  2     1134
siesta:      0.00000 164.34289  13.99919  1     1135
siesta:      0.00000 167.03704  13.99919  2     1136
siesta:      0.00000 168.38411  16.33239  1     1137
siesta:      0.00000 171.07826  16.33239  2     1138
siesta:      0.00000 172.42533  18.66559  1     1139
siesta:      0.00000 175.11948  18.66559  2     1140
siesta:      0.00000 176.46655  20.99879  1     1141
siesta:      0.00000 179.16070  20.99879  2     1142
siesta:      0.00000 180.50777  23.33199  1     1143
siesta:      0.00000 183.20192  23.33199  2     1144
siesta:      0.00000 184.54899  25.66519  1     1145
siesta:      0.00000 187.24313  25.66519  2     1146
siesta:      0.00000 188.59021  27.99838  1     1147
siesta:      0.00000 191.28435  27.99838  2     1148
siesta:      0.00000 192.63143  30.33158  1     1149
siesta:      0.00000 195.32557  30.33158  2     1150
siesta:      0.00000 196.67264  32.66478  1     1151
siesta:      0.00000 199.36679  32.66478  2     1152
siesta:      0.00000  75.43608 -41.99758  1     1153
siesta:      0.00000  78.13023 -41.99758  2     1154
siesta:      0.00000  79.47730 -39.66438  1     1155
siesta:      0.00000  82.17145 -39.66438  2     1156
siesta:      0.00000  83.51852 -37.33118  1     1157
siesta:      0.00000  86.21267 -37.33118  2     1158
siesta:      0.00000  87.55974 -34.99798  1     1159
siesta:      0.00000  90.25388 -34.99798  2     1160
siesta:      0.00000  91.60096 -32.66478  1     1161
siesta:      0.00000  94.29510 -32.66478  2     1162
siesta:      0.00000  95.64218 -30.33158  1     1163
siesta:      0.00000  98.33632 -30.33158  2     1164
siesta:      0.00000  99.68340 -27.99838  1     1165
siesta:      0.00000 102.37754 -27.99838  2     1166
siesta:      0.00000 103.72461 -25.66519  1     1167
siesta:      0.00000 106.41876 -25.66519  2     1168
siesta:      0.00000 107.76583 -23.33199  1     1169
siesta:      0.00000 110.45998 -23.33199  2     1170
siesta:      0.00000 111.80705 -20.99879  1     1171
siesta:      0.00000 114.50120 -20.99879  2     1172
siesta:      0.00000 115.84827 -18.66559  1     1173
siesta:      0.00000 118.54242 -18.66559  2     1174
siesta:      0.00000 119.88949 -16.33239  1     1175
siesta:      0.00000 122.58363 -16.33239  2     1176
siesta:      0.00000 123.93071 -13.99919  1     1177
siesta:      0.00000 126.62485 -13.99919  2     1178
siesta:      0.00000 127.97193 -11.66599  1     1179
siesta:      0.00000 130.66607 -11.66599  2     1180
siesta:      0.00000 132.01314  -9.33279  1     1181
siesta:      0.00000 134.70729  -9.33279  2     1182
siesta:      0.00000 136.05436  -6.99960  1     1183
siesta:      0.00000 138.74851  -6.99960  2     1184
siesta:      0.00000 140.09558  -4.66640  1     1185
siesta:      0.00000 142.78973  -4.66640  2     1186
siesta:      0.00000 144.13680  -2.33320  1     1187
siesta:      0.00000 146.83095  -2.33320  2     1188
siesta:      0.00000 148.17802   0.00000  1     1189
siesta:      0.00000 150.87217   0.00000  2     1190
siesta:      0.00000 152.21924   2.33320  1     1191
siesta:      0.00000 154.91338   2.33320  2     1192
siesta:      0.00000 156.26046   4.66640  1     1193
siesta:      0.00000 158.95460   4.66640  2     1194
siesta:      0.00000 160.30168   6.99960  1     1195
siesta:      0.00000 162.99582   6.99960  2     1196
siesta:      0.00000 164.34289   9.33279  1     1197
siesta:      0.00000 167.03704   9.33279  2     1198
siesta:      0.00000 168.38411  11.66599  1     1199
siesta:      0.00000 171.07826  11.66599  2     1200
siesta:      0.00000 172.42533  13.99919  1     1201
siesta:      0.00000 175.11948  13.99919  2     1202
siesta:      0.00000 176.46655  16.33239  1     1203
siesta:      0.00000 179.16070  16.33239  2     1204
siesta:      0.00000 180.50777  18.66559  1     1205
siesta:      0.00000 183.20192  18.66559  2     1206
siesta:      0.00000 184.54899  20.99879  1     1207
siesta:      0.00000 187.24313  20.99879  2     1208
siesta:      0.00000 188.59021  23.33199  1     1209
siesta:      0.00000 191.28435  23.33199  2     1210
siesta:      0.00000 192.63143  25.66519  1     1211
siesta:      0.00000 195.32557  25.66519  2     1212
siesta:      0.00000 196.67264  27.99838  1     1213
siesta:      0.00000 199.36679  27.99838  2     1214
siesta:      0.00000 200.71386  30.33158  1     1215
siesta:      0.00000 203.40801  30.33158  2     1216
siesta:      0.00000  79.47730 -44.33078  1     1217
siesta:      0.00000  82.17145 -44.33078  2     1218
siesta:      0.00000  83.51852 -41.99758  1     1219
siesta:      0.00000  86.21267 -41.99758  2     1220
[...]
        1940       4:    5  204:  216   69:   81
        1941      63:   64  204:  216   82:   95
        1942      11:   57  204:  216   82:   95
        1943      60:   62  204:  216   82:   95
        1944       4:    5  204:  216   96:  108
        1945      11:   57  204:  216   96:  108
        1946       1:    3  204:  216   96:  108
        1947       6:    7  203:  216   95:  108
        1948      58:   59  204:  216   96:  108
        1949      11:   57  204:  216  109:  122
        1950      60:   62  204:  216  109:  122
        1951      58:   59  204:  216  109:  122
        1952       6:    7  204:  216  109:  121
        1953       4:    5  204:  216  123:  135
        1954      11:   57  204:  216  123:  135
        1955       1:    3  204:  216  123:  135
        1956       6:    7  203:  216  122:  135
        1957      63:   64  204:  216  123:  135
        1958      11:   57  204:  216  136:  149
        1959       1:    3  204:  216  136:  149
        1960       4:    5  204:  216  136:  149
        1961      60:   62  204:  216  136:  149
        1962      63:   64  204:  216  150:  162
        1963      11:   57  204:  216  150:  162
        1964       6:    7  203:  216  149:  162
        1965      63:   64  136:  149   15:   27
        1966       4:    5  204:  216  150:  162
        1967      11:   57  204:  216  163:  176
        1968      60:   62  204:  216  163:  176
        1969       1:    3  204:  216  163:  176
        1970       4:    5  204:  216  163:  176
        1971       4:    5  204:  216  177:  189
        1972      11:   57  204:  216  177:  189
        1973       1:    3  204:  216  177:  189
        1974       6:    7  203:  216  176:  189
        1975      58:   59  204:  216  177:  189
        1976      11:   57  204:  216  190:  203
        1977      60:   62   82:   95  150:  162
        1978       1:    3  204:  216  190:  203
        1979       6:    7   28:   40  176:  189
        1980      58:   59  204:  216  190:  203
        1981      11:   57  204:  216  204:  216
        1982       1:    3  204:  216  204:  216
        1983       6:    7  203:  216  203:  216
        1984       4:    5  204:  216  204:  216
        1985      60:   62  204:  216    1:   14
        1986      63:   64    1:   14  150:  162
        1987      58:   59  204:  216    1:   14
        1988       8:   10  203:  216   14:   27
        1989      11:   57  204:  216   15:   27
        1990       4:    5   96:  108   28:   41
        1991      58:   59  204:  216   15:   27
        1992       1:    3  204:  216   28:   41
        1993       8:   10  204:  216   28:   40
        1994       4:    5  204:  216   28:   41
        1995       8:   10  203:  216   41:   54
        1996      63:   64  204:  216   42:   54
        1997       8:   10   82:   95   28:   40
        1998       1:    3  204:  216   42:   54
        1999      58:   59  204:  216   55:   68
        2000       6:    7  204:  216   55:   67
        2001      63:   64  204:  216   55:   68
        2002       8:   10  203:  216   68:   81
        2003      60:   62  204:  216   69:   81
        2004      63:   64  204:  216   69:   81
        2005       1:    3    1:   14  177:  189
        2006       1:    3  204:  216   82:   95
        2007      58:   59  204:  216   82:   95
        2008       6:    7  204:  216   82:   94
        2009       8:   10  203:  216   95:  108
        2010      60:   62  204:  216   96:  108
        2011       4:    5    1:   14   96:  108
        2012      63:   64  204:  216   96:  108
        2013       1:    3   15:   27  163:  176
        2014       1:    3  204:  216  109:  122
        2015      63:   64  204:  216  109:  122
        2016      58:   59  177:  189   69:   81
        2017       8:   10  204:  216  109:  121
        2018       8:   10  203:  216  122:  135
        2019      58:   59  136:  149   69:   81
        2020      58:   59  204:  216  123:  135
        2021       8:   10   82:   94   41:   54
        2022       8:   10  204:  216  136:  148
        2023      58:   59  204:  216  136:  149
        2024       6:    7  204:  216  136:  148
        2025      63:   64  204:  216  136:  149
        2026      58:   59   15:   27   42:   54
        2027       8:   10  203:  216  149:  162
        2028      60:   62  204:  216  150:  162
        2029      60:   62   82:   95  123:  135
        2030      58:   59  204:  216  150:  162
        2031       8:   10  204:  216  163:  175
        2032      63:   64  204:  216  163:  176
        2033      63:   64  190:  203  177:  189
        2034      58:   59  204:  216  163:  176
        2035      60:   62  204:  216  177:  189
        2036       8:   10  203:  216  176:  189
        2037      60:   62   55:   68  150:  162
        2038       6:    7   28:   41  163:  175
        2039      63:   64  204:  216  177:  189
        2040      60:   62  204:  216  190:  203
        2041      60:   62   69:   81  136:  149
        2042       8:   10  204:  216  190:  202
        2043      63:   64  190:  203   42:   54
        2044      63:   64  204:  216  190:  203
        2045       8:   10  203:  216  203:  216
        2046      60:   62  204:  216  204:  216
        2047      58:   59  163:  176  204:  216
        2048      58:   59  204:  216  204:  216
Setting up quadratic distribution...
ExtMesh (bp) on 0 =    93 x    54 x    54 =      271188
PhiOnMesh: Number of (b)points on node 0 =                10388
PhiOnMesh: nlist on node 0 =                42938

stepf: Fermi-Dirac step function

siesta: Program's energy decomposition (eV):
siesta: Ebs     =   -125934.887027
siesta: Eions   =    556938.122032
siesta: Ena     =     95479.836959
siesta: Ekin    =    223097.970932
siesta: Enl     =    -19257.133428
siesta: DEna    =        -0.002500
siesta: DUscf   =         0.000000
siesta: DUext   =         0.000000
siesta: Exc     =   -106919.633409
siesta: eta*DQ  =         0.000000
siesta: Emadel  =         0.000000
siesta: Emeta   =         0.000000
siesta: Emolmec =         0.000000
siesta: Ekinion =         0.000000
siesta: Eharris =   -365687.381838
siesta: Etot    =   -364537.083477
siesta: FreeEng =   -364537.083477

   scf: iscf   Eharris(eV)      E_KS(eV)   FreeEng(eV)    dDmax  Ef(eV)
   scf:    1  -365687.3818  -364537.0835  -364537.0835  1.98884 -7.4015
timer: Routine,Calls,Time,% =    IterSCF     1     483.530  76.40
   scf:    2  -365901.5099  -364576.6492  -364576.6492  0.28758 -3.0916
   scf:    3  -365152.8794  -364804.3910  -364804.3910  0.10586 -4.8005
   scf:    4  -365122.4741  -364949.5185  -364949.5185  0.01686 -5.3065
   scf:    5  -365121.4553  -365025.0478  -365025.0478  0.01058 -5.3344
   scf:    6  -365120.9173  -365092.9938  -365092.9938  0.00425 -5.3051
   scf:    7  -365120.9008  -365106.0831  -365106.0831  0.00088 -5.3103
   scf:    8  -365120.8941  -365112.5088  -365112.5088  0.00068 -5.3131
   scf:    9  -365120.8940  -365116.5972  -365116.5972  0.00035 -5.3128
   scf:   10  -365120.8939  -365119.3836  -365119.3836  0.00009 -5.3122

SCF Convergence by dMax criterion
max |DM_out - DM_in|:     0.00008660
SCF cycle converged after   10 iterations

Using DM_out to compute the final energy and forces

siesta: E_KS(eV) =          -365120.8939

siesta: E_KS - E_eggbox =   -365120.8939

siesta: Atomic forces (eV/Ang):
----------------------------------------
   Tot   -0.000017    0.000027    0.000000
----------------------------------------
   Max    0.025999
   Res    0.011778    sqrt( Sum f_i^2 / 3N )
----------------------------------------
   Max    0.025999    constrained

Stress-tensor-Voigt (kbar):        0.60      -12.75      -12.75        0.00        0.00        0.00
(Free)E + p*V (eV/cell)  -364560.7658
Target enthalpy (eV/cell)  -365120.8939

siesta: Program's energy decomposition (eV):
siesta: Ebs     =   -107920.009858
siesta: Eions   =    556938.122032
siesta: Ena     =     95479.836959
siesta: Ekin    =    258496.729516
siesta: Enl     =    -47171.804298
siesta: DEna    =     -6086.514364
siesta: DUscf   =       649.949469
siesta: DUext   =         0.000000
siesta: Exc     =   -109550.969138
siesta: eta*DQ  =         0.000000
siesta: Emadel  =         0.000000
siesta: Emeta   =         0.000000
siesta: Emolmec =         0.000000
siesta: Ekinion =         0.000000
siesta: Eharris =   -365120.893943
siesta: Etot    =   -365120.893888
siesta: FreeEng =   -365120.893888

siesta: Final energy (eV):
siesta:  Band Struct. = -107920.009858
siesta:       Kinetic =  258496.729516
siesta:       Hartree = 1603794.644535
siesta:    Ext. field =       0.000000
siesta:   Exch.-corr. = -109550.969138
siesta:  Ion-electron =-3439086.187399
siesta:       Ion-ion = 1321224.888599
siesta:       Ekinion =       0.000000
siesta:         Total = -365120.893888

siesta: Stress tensor (static) (eV/Ang**3):
siesta:     0.000377    0.000000    0.000000
siesta:     0.000000   -0.007957    0.000000
siesta:     0.000000    0.000000   -0.007957

siesta: Cell volume =     108149.857889 Ang**3

siesta: Pressure (static):
siesta:                Solid            Molecule  Units
siesta:           0.00005641          0.00005622  Ry/Bohr**3
siesta:           0.00517918          0.00516173  eV/Ang**3
siesta:           8.29805831          8.27009707  kBar
(Free)E+ p_basis*V_orbitals  =     -364410.012885
(Free)Eharris+ p_basis*V_orbitals  =     -364410.012941

siesta: Electric dipole (a.u.)  =    0.000001    0.000000    0.000000
siesta: Electric dipole (Debye) =    0.000002    0.000000    0.000000
>> End of run:   8-DEC-2016  14:05:03
************************************************************************************************************************
***             WIDEN YOUR WINDOW TO 120 CHARACTERS.  Use 'enscript -r -fCourier9' to print this document            ***
************************************************************************************************************************

---------------------------------------------- PETSc Performance Summary: ----------------------------------------------

/home/keceli/scratch2/siesta-qetsc/Obj/siesta on a arch-xl named Q02-I7-J04.vesta.itd with 2048 processors, by Unknown Thu Dec  8 14:05:03 2016
Using Petsc Development GIT revision: v3.7.3-1204-g68f0caa  GIT Date: 2016-08-19 16:41:02 -0500

                         Max       Max/Min        Avg      Total 
Time (sec):           5.024e+03      1.00000   5.024e+03
Objects:              1.000e+00      1.00000   1.000e+00
Flops:                0.000e+00      0.00000   0.000e+00  0.000e+00
Flops/sec:            0.000e+00      0.00000   0.000e+00  0.000e+00
MPI Messages:         0.000e+00      0.00000   0.000e+00  0.000e+00
MPI Message Lengths:  0.000e+00      0.00000   0.000e+00  0.000e+00
MPI Reductions:       1.000e+00      1.00000

Flop counting convention: 1 flop = 1 real number operation of type (multiply/divide/add/subtract)
                            e.g., VecAXPY() for real vectors of length N --> 2N flops
                            and VecAXPY() for complex vectors of length N --> 8N flops

Summary of Stages:   ----- Time ------  ----- Flops -----  --- Messages ---  -- Message Lengths --  -- Reductions --
                        Avg     %Total     Avg     %Total   counts   %Total     Avg         %Total   counts   %Total 
 0:      Main Stage: 2.0392e-04   0.0%  0.0000e+00   0.0%  0.000e+00   0.0%  0.000e+00        0.0%  0.000e+00   0.0% 
 1:     siesta_init: 3.1401e+00   0.1%  0.0000e+00   0.0%  0.000e+00   0.0%  0.000e+00        0.0%  0.000e+00   0.0% 
 2:   siesta_forces: 1.4725e+02   2.9%  0.0000e+00   0.0%  0.000e+00   0.0%  0.000e+00        0.0%  0.000e+00   0.0% 
 3:    siesta_solve: 4.8102e+03  95.7%  0.0000e+00   0.0%  0.000e+00   0.0%  0.000e+00        0.0%  0.000e+00   0.0% 
10:     siesta_misc: 1.5411e+01   0.3%  0.0000e+00   0.0%  0.000e+00   0.0%  0.000e+00        0.0%  0.000e+00   0.0% 
11:     qetsc_clean: 7.6640e-06   0.0%  0.0000e+00   0.0%  0.000e+00   0.0%  0.000e+00        0.0%  0.000e+00   0.0% 
12:     siesta_move: 1.1116e-04   0.0%  0.0000e+00   0.0%  0.000e+00   0.0%  0.000e+00        0.0%  0.000e+00   0.0% 
13: siesta_analysis: 6.4215e-03   0.0%  0.0000e+00   0.0%  0.000e+00   0.0%  0.000e+00        0.0%  0.000e+00   0.0% 
14:      siesta_end: 4.8270e+01   1.0%  0.0000e+00   0.0%  0.000e+00   0.0%  0.000e+00        0.0%  0.000e+00   0.0% 

------------------------------------------------------------------------------------------------------------------------
See the 'Profiling' chapter of the users' manual for details on interpreting output.
Phase summary info:
   Count: number of times phase was executed
   Time and Flops: Max - maximum over all processors
                   Ratio - ratio of maximum to minimum over all processors
   Mess: number of messages sent
   Avg. len: average message length (bytes)
   Reduct: number of global reductions
   Global: entire computation
   Stage: stages of a computation. Set stages with PetscLogStagePush() and PetscLogStagePop().
      %T - percent time in this phase         %F - percent flops in this phase
      %M - percent messages in this phase     %L - percent message lengths in this phase
      %R - percent reductions in this phase
   Total Mflop/s: 10e-6 * (sum of flops over all processors)/(max time over all processors)
------------------------------------------------------------------------------------------------------------------------
Event                Count      Time (sec)     Flops                             --- Global ---  --- Stage ---   Total
                   Max Ratio  Max     Ratio   Max  Ratio  Mess   Avg len Reduct  %T %F %M %L %R  %T %F %M %L %R Mflop/s
------------------------------------------------------------------------------------------------------------------------

--- Event Stage 0: Main Stage


--- Event Stage 1: siesta_init


--- Event Stage 2: siesta_forces


--- Event Stage 3: siesta_solve


--- Event Stage 4: Unknown


--- Event Stage 5: Unknown


--- Event Stage 6: Unknown


--- Event Stage 7: Unknown


--- Event Stage 8: Unknown


--- Event Stage 9: Unknown


--- Event Stage 10: siesta_misc


--- Event Stage 11: qetsc_clean


--- Event Stage 12: siesta_move


--- Event Stage 13: siesta_analysis


--- Event Stage 14: siesta_end

------------------------------------------------------------------------------------------------------------------------

Memory usage is given in bytes:

Object Type          Creations   Destructions     Memory  Descendants' Mem.
Reports information only for process 0.

--- Event Stage 0: Main Stage


--- Event Stage 1: siesta_init


--- Event Stage 2: siesta_forces


--- Event Stage 3: siesta_solve


--- Event Stage 4: Unknown


--- Event Stage 5: Unknown


--- Event Stage 6: Unknown


--- Event Stage 7: Unknown


--- Event Stage 8: Unknown


--- Event Stage 9: Unknown


--- Event Stage 10: siesta_misc


--- Event Stage 11: qetsc_clean


--- Event Stage 12: siesta_move


--- Event Stage 13: siesta_analysis


--- Event Stage 14: siesta_end

              Viewer     1              0            0     0.
========================================================================================================================
Average time to get PetscTime(): 1.23875e-07
Average time for MPI_Barrier(): 3.57638e-06
Average time for zero size MPI_Send(): 1.21909e-05
#PETSc Option Table entries:
-eps_interval -2.3,0.
-eps_krylovschur_detect_zeros 0
-eps_krylovschur_partitions 1
-ioptbin 7
-ioptdensity 0
-ioptinertia 1
-ioptleft 2
-log_view
-mat_mumps_icntl_23 700
-mat_mumps_icntl_7 5
-mat_type mpisbaij
-roptbuffer 0.01
-roptdiff 0.02
-writeeigs 1
#End of PETSc Option Table entries
Compiled with FORTRAN kernels
Compiled with full precision matrices (default)
sizeof(short) 2 sizeof(int) 4 sizeof(long) 8 sizeof(void*) 8 sizeof(PetscScalar) 8 sizeof(PetscInt) 4
Configure options: --known-has-attribute-aligned=1 --download-chaco=0 --download-cmake=0 --download-hypre=0 --download-metis=1 --download-mumps=1 --download-parmetis=1 --download-plapack=0 --download-prometheus=0 --download-ptscotch=1 --download-spai=0 --download-spooles=0 --download-superlu=0 --download-superlu_dist=0 --download-triangle=0 --known-bits-per-byte=8 --known-level1-dcache-assoc=0 --known-level1-dcache-linesize=32 --known-level1-dcache-size=32768 --known-memcmp-ok=1 --known-mpi-c-double-complex=1 --known-mpi-int64_t=1 --known-mpi-long-double=1 --known-mpi-shared-libraries=0 --known-sdot-returns-double=0 --known-sizeof-MPI_Comm=4 --known-sizeof-MPI_Fint=4 --known-sizeof-char=1 --known-sizeof-double=8 --known-sizeof-float=4 --known-sizeof-int=4 --known-sizeof-long-long=8 --known-sizeof-long=8 --known-sizeof-short=2 --known-sizeof-size_t=8 --known-sizeof-void-p=8 --known-snrm2-returns-double=0 --with-batch=1 --with-blacs-include=/soft/libraries/alcf/current/xl/SCALAPACK/ --with-blacs-lib=/soft/libraries/alcf/current/xl/SCALAPACK/lib/libscalapack.a --with-blas-lapack-lib="-L/soft/libraries/alcf/current/xl/LAPACK/lib -llapack -L/soft/libraries/alcf/current/xl/BLAS/lib -lblas" --with-cc=mpixlc_r --with-clib-autodetect=0 --with-cxx=mpixlcxx_r --with-cxxlib-autodetect=0 --with-debugging=0 --with-fc="mpixlf77_r -qnosave" --with-fortran-kernels=1 --with-fortranlib-autodetect=0 --with-is-color-value-type=short --with-scalapack-include=/soft/libraries/alcf/current/xl/SCALAPACK/ --with-scalapack-lib=/soft/libraries/alcf/current/xl/SCALAPACK/lib/libscalapack.a --with-shared-libraries=0 --with-x=0 -COPTFLAGS=" -g -O3 -qhot=level=0 -qsimd=auto -qmaxmem=-1 -qstrict -qstrict_induction" -CXXOPTFLAGS="  -g -O3 -qhot=level=0 -qsimd=auto -qmaxmem=-1 -qstrict -qstrict_induction" -FOPTFLAGS=" -g -O3 -qhot=level=0 -qsimd=auto -qmaxmem=-1 -qstrict -qstrict_induction" LIBS="-lmpichcxx-gcc -lmpichf77-gcc -L/soft/compilers/ibmcmp-feb2015/vacpp/bg/12.1/bglib64 -libmc++ -L/soft/compilers/ibmcmp-feb2015/xlf/bg/14.1/bglib64 -lxlf90_r -lxlomp_ser -lxlfmath" PETSC_ARCH=arch-xl
-----------------------------------------
Libraries compiled on Sat Aug 20 04:19:47 2016 on vestalac2 
Machine characteristics: Linux-2.6.32-573.18.1.el6.ppc64-ppc64-with-redhat-6.7-Santiago
Using PETSc directory: /home/keceli/scratch2/petsc
Using PETSc arch: arch-xl
-----------------------------------------

Using C compiler: mpixlc_r   -g -O3 -qhot=level=0 -qsimd=auto -qmaxmem=-1 -qstrict -qstrict_induction  ${COPTFLAGS} ${CFLAGS}
Using Fortran compiler: mpixlf77_r -qnosave  -g -O3 -qhot=level=0 -qsimd=auto -qmaxmem=-1 -qstrict -qstrict_induction   ${FOPTFLAGS} ${FFLAGS} 
-----------------------------------------

Using include paths: -I/home/keceli/scratch2/petsc/arch-xl/include -I/home/keceli/scratch2/petsc/include -I/home/keceli/scratch2/petsc/include -I/home/keceli/scratch2/petsc/arch-xl/include -I/bgsys/drivers/V1R2M4/ppc64/comm/include -I/bgsys/drivers/V1R2M4/ppc64/comm/lib/xl -I/bgsys/drivers/V1R2M4/ppc64 -I/bgsys/drivers/V1R2M4/ppc64/comm/sys/include -I/bgsys/drivers/V1R2M4/ppc64/spi/include -I/bgsys/drivers/V1R2M4/ppc64/spi/include/kernel/cnk
-----------------------------------------

Using C linker: mpixlc_r
Using Fortran linker: mpixlf77_r -qnosave
Using libraries: -Wl,-rpath,/home/keceli/scratch2/petsc/arch-xl/lib -L/home/keceli/scratch2/petsc/arch-xl/lib -lpetsc -Wl,-rpath,/home/keceli/scratch2/petsc/arch-xl/lib -L/home/keceli/scratch2/petsc/arch-xl/lib -lcmumps -ldmumps -lsmumps -lzmumps -lmumps_common -lpord -Wl,-rpath,/soft/libraries/alcf/current/xl/SCALAPACK/lib -L/soft/libraries/alcf/current/xl/SCALAPACK/lib -lscalapack -L/soft/libraries/alcf/current/xl/LAPACK/lib -llapack -L/soft/libraries/alcf/current/xl/BLAS/lib -lblas -lparmetis -lmetis -lptesmumps -lptscotch -lptscotcherr -lscotch -lscotcherr -lrt -lm -lpthread -ldl -lmpichcxx-gcc -lmpichf77-gcc -L/soft/compilers/ibmcmp-feb2015/vacpp/bg/12.1/bglib64 -libmc++ -L/soft/compilers/ibmcmp-feb2015/xlf/bg/14.1/bglib64 -lxlf90_r -lxlomp_ser -lxlfmath
-----------------------------------------

