s.subSiesta: Submission time = 51s58m17h
s.subSiesta: Job name = sb24_s1_n72_c16_vesta
s.subSiesta: Number of nodes = 72
s.subSiesta: Number of cores = 1152
s.subSiesta: Number of cores/node = 16
s.subSiesta: Number of slices = 1
s.subSiesta: Mapping = ABCDET
51s58m17h
#QETSc options
-ioptbin 7
-ioptdensity 0
-ioptinertia 1
-ioptleft 2
-roptleft -2.3
-roptright 0.
-roptbuffer 0.01
-roptdiff 0.02
-writeeigs 1

#PETSc options
-mat_type mpisbaij
-log_view
#-mat_view
#-memory_view
#-mat_mumps_icntl_13 1 #turn off scaLAPACK for matrix inertia
#-mat_mumps_icntl_24 1 #null pivot row detection for matrix inertia
-mat_mumps_icntl_23 0
#-mat_mumps_icntl_28 1 # serial analysis
#-mat_mumps_icntl_28 2 #parallel analysis
#-mat_mumps_icntl_29 1 #ptscotch
#-mat_mumps_icntl_29 2 #parmetis
-mat_mumps_icntl_7 5 #metis
#-malloc_info 
#-mat_view ::ascii_info 
#-mat_getrow_uppertriangular 1
#-st_type sinvert 
#-st_ksp_type preonly 
#-st_pc_type cholesky 
#-st_pc_factor_mat_solver_package mumps 

#SLEPc options

#-eps_krylovschur_partitions 1  
-eps_interval -2.3,0.
#-eps_tol  1.e-8
-eps_krylovschur_detect_zeros 0
-eps_purify 0
SystemName          BN
SystemLabel         BN
NumberOfAtoms       2
NumberOfSpecies     2

#SolutionMethod  slepc1
DM.MixingWeight 0.3
DM.NumberPulay 3
WriteDM .false.
WriteDM.NetCDF .false.
WriteDMHS.NetCDF .false.
LongOutput .false.


%block ChemicalSpeciesLabel
 1  5  B
 2  7  N
%endblock ChemicalSpeciesLabel

PAO.BasisType split
PAO.BasisSize DZP

LatticeConstant 1.00 Ang
%block LatticeVectors
20.000000000000000        0.0000000000000000        0.0000000000000000        
0.0000000000000000        2.1385199999999998        1.2346750976673984        
0.0000000000000000        2.1385199999999998       -1.2346750976673984        
%endblock LatticeVectors

%block kgrid_Monkhorst_Pack
1 0 0 0.0
0 1 0 0.0
0 0 1 0.0
%endblock kgrid_Monkhorst_Pack

%block SuperCell
1 0 0
0 24 0
0 0 24
%endblock SuperCell

AtomicCoordinatesFormat Ang
%block AtomicCoordinatesAndAtomicSpecies
 0.0000000000000000 1.4256799999999998 0.0000000000000000 1
 0.0000000000000000 2.8513599999999997 0.0000000000000000 2
%endblock AtomicCoordinatesAndAtomicSpecies
Siesta Version: siesta-trunk-492
Architecture  : powerpc64-unknown-linux-gnu--Xlf
Compiler flags: mpixlf90_r -I/home/keceli/scratch2/petsc/include -I/home/keceli/scratch2/petssc/arch-xl/include -I/bgsys/drivers/V1R2M4/ppc64/comm/include -I/bgsys/drivers/V1R2M4/ppc64/comm/lib/xl -I/bgsys/drivers/V1R2M4/ppc64 -I/bgsys/drivers/V1R2M4/ppc64/comm/sys/include -I/bgsys/drivers/V1R2M4/ppc64/spi/include -I/bgsys/drivers/V1R2M4/ppc64/spi/include/kernel/cnk -I/home/keceli/scratch2/slepcfork/include -I/home/keceli/scratch2/slepcfork/arch-xl/include
PP flags      : -WF,-DMPI -WF,-DFC_HAVE_ABORT -WF,-DBSC_CELLXC -WF,-DMPI_TIMING 
PARALLEL version

* Running on 1152 nodes in parallel
>> Start of run:   8-DEC-2016  17:59:46

                           ***********************       
                           *  WELCOME TO SIESTA  *       
                           ***********************       
WARNING: Siesta is reading its input from file INPUT_DEBUG

reinit: -----------------------------------------------------------------------
reinit: System Name: BN
reinit: -----------------------------------------------------------------------
reinit: System Label: BN                                                          
reinit: -----------------------------------------------------------------------

initatom: Reading input for the pseudopotentials and atomic orbitals ----------
Species number:   1 Atomic number:    5 Label: B
Species number:   2 Atomic number:    7 Label: N
 
Ground state valence configuration:   2s02  2p01
Reading pseudopotential information in formatted form from B.psf

Valence configuration for pseudopotential generation:
2s( 2.00) rc: 1.74
2p( 1.00) rc: 1.74
3d( 0.00) rc: 1.74
4f( 0.00) rc: 1.74
Ground state valence configuration:   2s02  2p03
Reading pseudopotential information in formatted form from N.psf

Valence configuration for pseudopotential generation:
2s( 2.00) rc: 1.48
2p( 3.00) rc: 1.48
3d( 0.00) rc: 1.48
4f( 0.00) rc: 1.48
For B, standard SIESTA heuristics set lmxkb to 3
 (one more than the basis l, including polarization orbitals).
Use PS.lmax or PS.KBprojectors blocks to override.
For N, standard SIESTA heuristics set lmxkb to 3
 (one more than the basis l, including polarization orbitals).
Use PS.lmax or PS.KBprojectors blocks to override.

<basis_specs>
===============================================================================
B                    Z=   5    Mass=  10.810        Charge= 0.17977+309
Lmxo=1 Lmxkb= 3    BasisType=split      Semic=F
L=0  Nsemic=0  Cnfigmx=2
          n=1  nzeta=2  polorb=0
            splnorm:   0.15000    
               vcte:    0.0000    
               rinn:    0.0000    
               qcoe:    0.0000    
               qyuk:    0.0000    
               qwid:   0.10000E-01
                rcs:    0.0000      0.0000    
            lambdas:    1.0000      1.0000    
L=1  Nsemic=0  Cnfigmx=2
          n=1  nzeta=2  polorb=1
            splnorm:   0.15000    
               vcte:    0.0000    
               rinn:    0.0000    
               qcoe:    0.0000    
               qyuk:    0.0000    
               qwid:   0.10000E-01
                rcs:    0.0000      0.0000    
            lambdas:    1.0000      1.0000    
-------------------------------------------------------------------------------
L=0  Nkbl=1  erefs: 0.17977+309
L=1  Nkbl=1  erefs: 0.17977+309
L=2  Nkbl=1  erefs: 0.17977+309
L=3  Nkbl=1  erefs: 0.17977+309
===============================================================================
</basis_specs>

atom: Called for B                     (Z =   5)

read_vps: Pseudopotential generation method:
read_vps: ATM3      Troullier-Martins                       
Total valence charge:    3.00000

read_vps: Pseudopotential includes a core correction:
read_vps: Pseudo-core for xc-correction

xc_check: Exchange-correlation functional:
xc_check: Ceperley-Alder
V l=0 = -2*Zval/r beyond r=  1.7165
V l=1 = -2*Zval/r beyond r=  1.7165
V l=2 = -2*Zval/r beyond r=  1.7165
V l=3 = -2*Zval/r beyond r=  1.6951
All V_l potentials equal beyond r=  1.7165
This should be close to max(r_c) in ps generation
All pots = -2*Zval/r beyond r=  1.7165

VLOCAL1: 99.0% of the norm of Vloc inside     14.733 Ry
VLOCAL1: 99.9% of the norm of Vloc inside     33.577 Ry
atom: Maximum radius for 4*pi*r*r*local-pseudopot. charge    2.04484
atom: Maximum radius for r*vlocal+2*Zval:    1.75994
GHOST: No ghost state for L =  0
GHOST: No ghost state for L =  1
GHOST: No ghost state for L =  2
GHOST: No ghost state for L =  3

KBgen: Kleinman-Bylander projectors: 
   l= 0   rc=  1.897051   el= -0.689821   Ekb=  4.267659   kbcos=  0.294941
   l= 1   rc=  1.920920   el= -0.273582   Ekb= -2.493518   kbcos= -0.316494
   l= 2   rc=  2.044840   el=  0.002410   Ekb= -0.642570   kbcos= -0.014732
   l= 3   rc=  2.149707   el=  0.003543   Ekb= -0.260486   kbcos= -0.002341

KBgen: Total number of  Kleinman-Bylander projectors:   16
atom: -------------------------------------------------------------------------

atom: SANKEY-TYPE ORBITALS:
atom: Selected multiple-zeta basis: split     

SPLIT: Orbitals with angular momentum L= 0

SPLIT: Basis orbitals for state 2s

SPLIT: PAO cut-off radius determined from an
SPLIT: energy shift=  0.020000 Ry

   izeta = 1
                 lambda =    1.000000
                     rc =    4.906010
                 energy =   -0.672079
                kinetic =    0.600553
    potential(screened) =   -1.272632
       potential(ionic) =   -3.301886

   izeta = 2
                 rmatch =    4.170113
              splitnorm =    0.150000
                 energy =   -0.581071
                kinetic =    0.883210
    potential(screened) =   -1.464280
       potential(ionic) =   -3.607314

SPLIT: Orbitals with angular momentum L= 1

SPLIT: Basis orbitals for state 2p

SPLIT: PAO cut-off radius determined from an
SPLIT: energy shift=  0.020000 Ry

   izeta = 1
                 lambda =    1.000000
                     rc =    5.700051
                 energy =   -0.254269
                kinetic =    1.609303
    potential(screened) =   -1.863571
       potential(ionic) =   -3.822590

   izeta = 2
                 rmatch =    4.275693
              splitnorm =    0.150000
                 energy =   -0.140145
                kinetic =    2.432023
    potential(screened) =   -2.572168
       potential(ionic) =   -4.719137

POLgen: Perturbative polarization orbital with L=  2

POLgen: Polarization orbital for state 2p

   izeta = 1
                     rc =    5.700051
                 energy =    0.829041
                kinetic =    1.746766
    potential(screened) =   -0.917724
       potential(ionic) =   -2.618902
atom: Total number of Sankey-type orbitals: 13

atm_pop: Valence configuration (for local Pseudopot. screening):
 2s( 2.00)                                                            
 2p( 1.00)                                                            
Vna: chval, zval:    3.00000   3.00000

Vna:  Cut-off radius for the neutral-atom potential:   5.700051
comcore: Pseudo-core radius Rcore=  2.122997

atom: _________________________________________________________________________

<basis_specs>
===============================================================================
N                    Z=   7    Mass=  14.010        Charge= 0.17977+309
Lmxo=1 Lmxkb= 3    BasisType=split      Semic=F
L=0  Nsemic=0  Cnfigmx=2
          n=1  nzeta=2  polorb=0
            splnorm:   0.15000    
               vcte:    0.0000    
               rinn:    0.0000    
               qcoe:    0.0000    
               qyuk:    0.0000    
               qwid:   0.10000E-01
                rcs:    0.0000      0.0000    
            lambdas:    1.0000      1.0000    
L=1  Nsemic=0  Cnfigmx=2
          n=1  nzeta=2  polorb=1
            splnorm:   0.15000    
               vcte:    0.0000    
               rinn:    0.0000    
               qcoe:    0.0000    
               qyuk:    0.0000    
               qwid:   0.10000E-01
                rcs:    0.0000      0.0000    
            lambdas:    1.0000      1.0000    
-------------------------------------------------------------------------------
L=0  Nkbl=1  erefs: 0.17977+309
L=1  Nkbl=1  erefs: 0.17977+309
L=2  Nkbl=1  erefs: 0.17977+309
L=3  Nkbl=1  erefs: 0.17977+309
===============================================================================
</basis_specs>

atom: Called for N                     (Z =   7)

read_vps: Pseudopotential generation method:
read_vps: ATM3      Troullier-Martins                       
Total valence charge:    5.00000

xc_check: Exchange-correlation functional:
xc_check: Ceperley-Alder
V l=0 = -2*Zval/r beyond r=  1.4606
V l=1 = -2*Zval/r beyond r=  1.4606
V l=2 = -2*Zval/r beyond r=  1.4606
V l=3 = -2*Zval/r beyond r=  1.4606
All V_l potentials equal beyond r=  1.4606
This should be close to max(r_c) in ps generation
All pots = -2*Zval/r beyond r=  1.4606

VLOCAL1: 99.0% of the norm of Vloc inside     20.347 Ry
VLOCAL1: 99.9% of the norm of Vloc inside     46.372 Ry
atom: Maximum radius for 4*pi*r*r*local-pseudopot. charge    1.76189
atom: Maximum radius for r*vlocal+2*Zval:    1.53550
GHOST: No ghost state for L =  0
GHOST: No ghost state for L =  1
GHOST: No ghost state for L =  2
GHOST: No ghost state for L =  3

KBgen: Kleinman-Bylander projectors: 
   l= 0   rc=  1.634559   el= -1.352239   Ekb=  4.901185   kbcos=  0.337501
   l= 1   rc=  1.614250   el= -0.532623   Ekb= -5.544141   kbcos= -0.433040
   l= 2   rc=  1.740002   el=  0.002346   Ekb= -1.331777   kbcos= -0.007563
   l= 3   rc=  1.806505   el=  0.003449   Ekb= -0.515466   kbcos= -0.000994

KBgen: Total number of  Kleinman-Bylander projectors:   16
atom: -------------------------------------------------------------------------

atom: SANKEY-TYPE ORBITALS:
atom: Selected multiple-zeta basis: split     

SPLIT: Orbitals with angular momentum L= 0

SPLIT: Basis orbitals for state 2s

SPLIT: PAO cut-off radius determined from an
SPLIT: energy shift=  0.020000 Ry

   izeta = 1
                 lambda =    1.000000
                     rc =    3.683980
                 energy =   -1.333780
                kinetic =    1.203249
    potential(screened) =   -2.537029
       potential(ionic) =   -8.126274

   izeta = 2
                 rmatch =    2.905100
              splitnorm =    0.150000
                 energy =   -1.138702
                kinetic =    1.810192
    potential(screened) =   -2.948894
       potential(ionic) =   -8.945013

SPLIT: Orbitals with angular momentum L= 1

SPLIT: Basis orbitals for state 2p

SPLIT: PAO cut-off radius determined from an
SPLIT: energy shift=  0.020000 Ry

   izeta = 1
                 lambda =    1.000000
                     rc =    4.280232
                 energy =   -0.512466
                kinetic =    3.598849
    potential(screened) =   -4.111315
       potential(ionic) =   -9.550563

   izeta = 2
                 rmatch =    2.941647
              splitnorm =    0.150000
                 energy =   -0.292244
                kinetic =    5.357522
    potential(screened) =   -5.649767
       potential(ionic) =  -11.693436

POLgen: Perturbative polarization orbital with L=  2

POLgen: Polarization orbital for state 2p

   izeta = 1
                     rc =    4.280232
                 energy =    1.826084
                kinetic =    3.687342
    potential(screened) =   -1.861257
       potential(ionic) =   -6.363951
atom: Total number of Sankey-type orbitals: 13

atm_pop: Valence configuration (for local Pseudopot. screening):
 2s( 2.00)                                                            
 2p( 3.00)                                                            
Vna: chval, zval:    5.00000   5.00000

Vna:  Cut-off radius for the neutral-atom potential:   4.280232

atom: _________________________________________________________________________

prinput: Basis input ----------------------------------------------------------

PAO.BasisType split     

%block ChemicalSpeciesLabel
    1    5 B                       # Species index, atomic number, species label
    2    7 N                       # Species index, atomic number, species label
%endblock ChemicalSpeciesLabel

%block PAO.Basis                 # Define Basis set
B                     2                    # Species label, number of l-shells
 n=2   0   2                         # n, l, Nzeta 
   4.906      4.170   
   1.000      1.000   
 n=2   1   2 P   1                   # n, l, Nzeta, Polarization, NzetaPol
   5.700      4.276   
   1.000      1.000   
N                     2                    # Species label, number of l-shells
 n=2   0   2                         # n, l, Nzeta 
   3.684      2.905   
   1.000      1.000   
 n=2   1   2 P   1                   # n, l, Nzeta, Polarization, NzetaPol
   4.280      2.942   
   1.000      1.000   
%endblock PAO.Basis

prinput: ----------------------------------------------------------------------

coor:   Atomic-coordinates input format  =     Cartesian coordinates
coor:                                          (in Angstroms)

siesta: Atomic coordinates (Bohr) and species
siesta:      0.00000   2.69415   0.00000  1        1
siesta:      0.00000   5.38829   0.00000  2        2
siesta:      0.00000   6.73536   2.33320  1        3
siesta:      0.00000   9.42951   2.33320  2        4
siesta:      0.00000  10.77658   4.66640  1        5
siesta:      0.00000  13.47073   4.66640  2        6
siesta:      0.00000  14.81780   6.99960  1        7
siesta:      0.00000  17.51195   6.99960  2        8
siesta:      0.00000  18.85902   9.33279  1        9
siesta:      0.00000  21.55317   9.33279  2       10
siesta:      0.00000  22.90024  11.66599  1       11
siesta:      0.00000  25.59439  11.66599  2       12
siesta:      0.00000  26.94146  13.99919  1       13
siesta:      0.00000  29.63560  13.99919  2       14
siesta:      0.00000  30.98268  16.33239  1       15
siesta:      0.00000  33.67682  16.33239  2       16
siesta:      0.00000  35.02390  18.66559  1       17
siesta:      0.00000  37.71804  18.66559  2       18
siesta:      0.00000  39.06511  20.99879  1       19
siesta:      0.00000  41.75926  20.99879  2       20
siesta:      0.00000  43.10633  23.33199  1       21
siesta:      0.00000  45.80048  23.33199  2       22
siesta:      0.00000  47.14755  25.66519  1       23
siesta:      0.00000  49.84170  25.66519  2       24
siesta:      0.00000  51.18877  27.99838  1       25
siesta:      0.00000  53.88292  27.99838  2       26
siesta:      0.00000  55.22999  30.33158  1       27
siesta:      0.00000  57.92414  30.33158  2       28
siesta:      0.00000  59.27121  32.66478  1       29
siesta:      0.00000  61.96535  32.66478  2       30
siesta:      0.00000  63.31243  34.99798  1       31
siesta:      0.00000  66.00657  34.99798  2       32
siesta:      0.00000  67.35365  37.33118  1       33
siesta:      0.00000  70.04779  37.33118  2       34
siesta:      0.00000  71.39486  39.66438  1       35
siesta:      0.00000  74.08901  39.66438  2       36
siesta:      0.00000  75.43608  41.99758  1       37
siesta:      0.00000  78.13023  41.99758  2       38
siesta:      0.00000  79.47730  44.33078  1       39
siesta:      0.00000  82.17145  44.33078  2       40
siesta:      0.00000  83.51852  46.66397  1       41
siesta:      0.00000  86.21267  46.66397  2       42
siesta:      0.00000  87.55974  48.99717  1       43
siesta:      0.00000  90.25388  48.99717  2       44
siesta:      0.00000  91.60096  51.33037  1       45
siesta:      0.00000  94.29510  51.33037  2       46
siesta:      0.00000  95.64218  53.66357  1       47
siesta:      0.00000  98.33632  53.66357  2       48
siesta:      0.00000   6.73536  -2.33320  1       49
siesta:      0.00000   9.42951  -2.33320  2       50
siesta:      0.00000  10.77658   0.00000  1       51
siesta:      0.00000  13.47073   0.00000  2       52
siesta:      0.00000  14.81780   2.33320  1       53
siesta:      0.00000  17.51195   2.33320  2       54
siesta:      0.00000  18.85902   4.66640  1       55
siesta:      0.00000  21.55317   4.66640  2       56
siesta:      0.00000  22.90024   6.99960  1       57
siesta:      0.00000  25.59439   6.99960  2       58
siesta:      0.00000  26.94146   9.33279  1       59
siesta:      0.00000  29.63560   9.33279  2       60
siesta:      0.00000  30.98268  11.66599  1       61
siesta:      0.00000  33.67682  11.66599  2       62
siesta:      0.00000  35.02390  13.99919  1       63
siesta:      0.00000  37.71804  13.99919  2       64
siesta:      0.00000  39.06511  16.33239  1       65
siesta:      0.00000  41.75926  16.33239  2       66
siesta:      0.00000  43.10633  18.66559  1       67
siesta:      0.00000  45.80048  18.66559  2       68
siesta:      0.00000  47.14755  20.99879  1       69
siesta:      0.00000  49.84170  20.99879  2       70
siesta:      0.00000  51.18877  23.33199  1       71
siesta:      0.00000  53.88292  23.33199  2       72
siesta:      0.00000  55.22999  25.66519  1       73
siesta:      0.00000  57.92414  25.66519  2       74
siesta:      0.00000  59.27121  27.99838  1       75
siesta:      0.00000  61.96535  27.99838  2       76
siesta:      0.00000  63.31243  30.33158  1       77
siesta:      0.00000  66.00657  30.33158  2       78
siesta:      0.00000  67.35365  32.66478  1       79
siesta:      0.00000  70.04779  32.66478  2       80
siesta:      0.00000  71.39486  34.99798  1       81
siesta:      0.00000  74.08901  34.99798  2       82
siesta:      0.00000  75.43608  37.33118  1       83
siesta:      0.00000  78.13023  37.33118  2       84
siesta:      0.00000  79.47730  39.66438  1       85
siesta:      0.00000  82.17145  39.66438  2       86
siesta:      0.00000  83.51852  41.99758  1       87
siesta:      0.00000  86.21267  41.99758  2       88
siesta:      0.00000  87.55974  44.33078  1       89
siesta:      0.00000  90.25388  44.33078  2       90
siesta:      0.00000  91.60096  46.66397  1       91
siesta:      0.00000  94.29510  46.66397  2       92
siesta:      0.00000  95.64218  48.99717  1       93
siesta:      0.00000  98.33632  48.99717  2       94
siesta:      0.00000  99.68340  51.33037  1       95
siesta:      0.00000 102.37754  51.33037  2       96
siesta:      0.00000  10.77658  -4.66640  1       97
siesta:      0.00000  13.47073  -4.66640  2       98
siesta:      0.00000  14.81780  -2.33320  1       99
siesta:      0.00000  17.51195  -2.33320  2      100
siesta:      0.00000  18.85902   0.00000  1      101
siesta:      0.00000  21.55317   0.00000  2      102
siesta:      0.00000  22.90024   2.33320  1      103
siesta:      0.00000  25.59439   2.33320  2      104
siesta:      0.00000  26.94146   4.66640  1      105
siesta:      0.00000  29.63560   4.66640  2      106
siesta:      0.00000  30.98268   6.99960  1      107
siesta:      0.00000  33.67682   6.99960  2      108
siesta:      0.00000  35.02390   9.33279  1      109
siesta:      0.00000  37.71804   9.33279  2      110
siesta:      0.00000  39.06511  11.66599  1      111
siesta:      0.00000  41.75926  11.66599  2      112
siesta:      0.00000  43.10633  13.99919  1      113
siesta:      0.00000  45.80048  13.99919  2      114
siesta:      0.00000  47.14755  16.33239  1      115
siesta:      0.00000  49.84170  16.33239  2      116
siesta:      0.00000  51.18877  18.66559  1      117
siesta:      0.00000  53.88292  18.66559  2      118
siesta:      0.00000  55.22999  20.99879  1      119
siesta:      0.00000  57.92414  20.99879  2      120
siesta:      0.00000  59.27121  23.33199  1      121
siesta:      0.00000  61.96535  23.33199  2      122
siesta:      0.00000  63.31243  25.66519  1      123
siesta:      0.00000  66.00657  25.66519  2      124
siesta:      0.00000  67.35365  27.99838  1      125
siesta:      0.00000  70.04779  27.99838  2      126
siesta:      0.00000  71.39486  30.33158  1      127
siesta:      0.00000  74.08901  30.33158  2      128
siesta:      0.00000  75.43608  32.66478  1      129
siesta:      0.00000  78.13023  32.66478  2      130
siesta:      0.00000  79.47730  34.99798  1      131
siesta:      0.00000  82.17145  34.99798  2      132
siesta:      0.00000  83.51852  37.33118  1      133
siesta:      0.00000  86.21267  37.33118  2      134
siesta:      0.00000  87.55974  39.66438  1      135
siesta:      0.00000  90.25388  39.66438  2      136
siesta:      0.00000  91.60096  41.99758  1      137
siesta:      0.00000  94.29510  41.99758  2      138
siesta:      0.00000  95.64218  44.33078  1      139
siesta:      0.00000  98.33632  44.33078  2      140
siesta:      0.00000  99.68340  46.66397  1      141
siesta:      0.00000 102.37754  46.66397  2      142
siesta:      0.00000 103.72461  48.99717  1      143
siesta:      0.00000 106.41876  48.99717  2      144
siesta:      0.00000  14.81780  -6.99960  1      145
siesta:      0.00000  17.51195  -6.99960  2      146
siesta:      0.00000  18.85902  -4.66640  1      147
siesta:      0.00000  21.55317  -4.66640  2      148
siesta:      0.00000  22.90024  -2.33320  1      149
siesta:      0.00000  25.59439  -2.33320  2      150
siesta:      0.00000  26.94146   0.00000  1      151
siesta:      0.00000  29.63560   0.00000  2      152
siesta:      0.00000  30.98268   2.33320  1      153
siesta:      0.00000  33.67682   2.33320  2      154
siesta:      0.00000  35.02390   4.66640  1      155
siesta:      0.00000  37.71804   4.66640  2      156
siesta:      0.00000  39.06511   6.99960  1      157
siesta:      0.00000  41.75926   6.99960  2      158
siesta:      0.00000  43.10633   9.33279  1      159
siesta:      0.00000  45.80048   9.33279  2      160
siesta:      0.00000  47.14755  11.66599  1      161
siesta:      0.00000  49.84170  11.66599  2      162
siesta:      0.00000  51.18877  13.99919  1      163
siesta:      0.00000  53.88292  13.99919  2      164
siesta:      0.00000  55.22999  16.33239  1      165
siesta:      0.00000  57.92414  16.33239  2      166
siesta:      0.00000  59.27121  18.66559  1      167
siesta:      0.00000  61.96535  18.66559  2      168
siesta:      0.00000  63.31243  20.99879  1      169
siesta:      0.00000  66.00657  20.99879  2      170
siesta:      0.00000  67.35365  23.33199  1      171
siesta:      0.00000  70.04779  23.33199  2      172
siesta:      0.00000  71.39486  25.66519  1      173
siesta:      0.00000  74.08901  25.66519  2      174
siesta:      0.00000  75.43608  27.99838  1      175
siesta:      0.00000  78.13023  27.99838  2      176
siesta:      0.00000  79.47730  30.33158  1      177
siesta:      0.00000  82.17145  30.33158  2      178
siesta:      0.00000  83.51852  32.66478  1      179
siesta:      0.00000  86.21267  32.66478  2      180
siesta:      0.00000  87.55974  34.99798  1      181
siesta:      0.00000  90.25388  34.99798  2      182
siesta:      0.00000  91.60096  37.33118  1      183
siesta:      0.00000  94.29510  37.33118  2      184
siesta:      0.00000  95.64218  39.66438  1      185
siesta:      0.00000  98.33632  39.66438  2      186
siesta:      0.00000  99.68340  41.99758  1      187
siesta:      0.00000 102.37754  41.99758  2      188
siesta:      0.00000 103.72461  44.33078  1      189
siesta:      0.00000 106.41876  44.33078  2      190
siesta:      0.00000 107.76583  46.66397  1      191
siesta:      0.00000 110.45998  46.66397  2      192
siesta:      0.00000  18.85902  -9.33279  1      193
siesta:      0.00000  21.55317  -9.33279  2      194
siesta:      0.00000  22.90024  -6.99960  1      195
siesta:      0.00000  25.59439  -6.99960  2      196
siesta:      0.00000  26.94146  -4.66640  1      197
siesta:      0.00000  29.63560  -4.66640  2      198
siesta:      0.00000  30.98268  -2.33320  1      199
siesta:      0.00000  33.67682  -2.33320  2      200
siesta:      0.00000  35.02390   0.00000  1      201
siesta:      0.00000  37.71804   0.00000  2      202
siesta:      0.00000  39.06511   2.33320  1      203
siesta:      0.00000  41.75926   2.33320  2      204
siesta:      0.00000  43.10633   4.66640  1      205
siesta:      0.00000  45.80048   4.66640  2      206
siesta:      0.00000  47.14755   6.99960  1      207
siesta:      0.00000  49.84170   6.99960  2      208
siesta:      0.00000  51.18877   9.33279  1      209
siesta:      0.00000  53.88292   9.33279  2      210
siesta:      0.00000  55.22999  11.66599  1      211
siesta:      0.00000  57.92414  11.66599  2      212
siesta:      0.00000  59.27121  13.99919  1      213
siesta:      0.00000  61.96535  13.99919  2      214
siesta:      0.00000  63.31243  16.33239  1      215
siesta:      0.00000  66.00657  16.33239  2      216
siesta:      0.00000  67.35365  18.66559  1      217
siesta:      0.00000  70.04779  18.66559  2      218
siesta:      0.00000  71.39486  20.99879  1      219
siesta:      0.00000  74.08901  20.99879  2      220
siesta:      0.00000  75.43608  23.33199  1      221
siesta:      0.00000  78.13023  23.33199  2      222
siesta:      0.00000  79.47730  25.66519  1      223
siesta:      0.00000  82.17145  25.66519  2      224
siesta:      0.00000  83.51852  27.99838  1      225
siesta:      0.00000  86.21267  27.99838  2      226
siesta:      0.00000  87.55974  30.33158  1      227
siesta:      0.00000  90.25388  30.33158  2      228
siesta:      0.00000  91.60096  32.66478  1      229
siesta:      0.00000  94.29510  32.66478  2      230
siesta:      0.00000  95.64218  34.99798  1      231
siesta:      0.00000  98.33632  34.99798  2      232
siesta:      0.00000  99.68340  37.33118  1      233
siesta:      0.00000 102.37754  37.33118  2      234
siesta:      0.00000 103.72461  39.66438  1      235
siesta:      0.00000 106.41876  39.66438  2      236
siesta:      0.00000 107.76583  41.99758  1      237
siesta:      0.00000 110.45998  41.99758  2      238
siesta:      0.00000 111.80705  44.33078  1      239
siesta:      0.00000 114.50120  44.33078  2      240
siesta:      0.00000  22.90024 -11.66599  1      241
siesta:      0.00000  25.59439 -11.66599  2      242
siesta:      0.00000  26.94146  -9.33279  1      243
siesta:      0.00000  29.63560  -9.33279  2      244
siesta:      0.00000  30.98268  -6.99960  1      245
siesta:      0.00000  33.67682  -6.99960  2      246
siesta:      0.00000  35.02390  -4.66640  1      247
siesta:      0.00000  37.71804  -4.66640  2      248
siesta:      0.00000  39.06511  -2.33320  1      249
siesta:      0.00000  41.75926  -2.33320  2      250
siesta:      0.00000  43.10633   0.00000  1      251
siesta:      0.00000  45.80048   0.00000  2      252
siesta:      0.00000  47.14755   2.33320  1      253
siesta:      0.00000  49.84170   2.33320  2      254
siesta:      0.00000  51.18877   4.66640  1      255
siesta:      0.00000  53.88292   4.66640  2      256
siesta:      0.00000  55.22999   6.99960  1      257
siesta:      0.00000  57.92414   6.99960  2      258
siesta:      0.00000  59.27121   9.33279  1      259
siesta:      0.00000  61.96535   9.33279  2      260
siesta:      0.00000  63.31243  11.66599  1      261
siesta:      0.00000  66.00657  11.66599  2      262
siesta:      0.00000  67.35365  13.99919  1      263
siesta:      0.00000  70.04779  13.99919  2      264
siesta:      0.00000  71.39486  16.33239  1      265
siesta:      0.00000  74.08901  16.33239  2      266
siesta:      0.00000  75.43608  18.66559  1      267
siesta:      0.00000  78.13023  18.66559  2      268
siesta:      0.00000  79.47730  20.99879  1      269
siesta:      0.00000  82.17145  20.99879  2      270
siesta:      0.00000  83.51852  23.33199  1      271
siesta:      0.00000  86.21267  23.33199  2      272
siesta:      0.00000  87.55974  25.66519  1      273
siesta:      0.00000  90.25388  25.66519  2      274
siesta:      0.00000  91.60096  27.99838  1      275
siesta:      0.00000  94.29510  27.99838  2      276
siesta:      0.00000  95.64218  30.33158  1      277
siesta:      0.00000  98.33632  30.33158  2      278
siesta:      0.00000  99.68340  32.66478  1      279
siesta:      0.00000 102.37754  32.66478  2      280
siesta:      0.00000 103.72461  34.99798  1      281
siesta:      0.00000 106.41876  34.99798  2      282
siesta:      0.00000 107.76583  37.33118  1      283
siesta:      0.00000 110.45998  37.33118  2      284
siesta:      0.00000 111.80705  39.66438  1      285
siesta:      0.00000 114.50120  39.66438  2      286
siesta:      0.00000 115.84827  41.99758  1      287
siesta:      0.00000 118.54242  41.99758  2      288
siesta:      0.00000  26.94146 -13.99919  1      289
siesta:      0.00000  29.63560 -13.99919  2      290
siesta:      0.00000  30.98268 -11.66599  1      291
siesta:      0.00000  33.67682 -11.66599  2      292
siesta:      0.00000  35.02390  -9.33279  1      293
siesta:      0.00000  37.71804  -9.33279  2      294
siesta:      0.00000  39.06511  -6.99960  1      295
siesta:      0.00000  41.75926  -6.99960  2      296
siesta:      0.00000  43.10633  -4.66640  1      297
siesta:      0.00000  45.80048  -4.66640  2      298
siesta:      0.00000  47.14755  -2.33320  1      299
siesta:      0.00000  49.84170  -2.33320  2      300
siesta:      0.00000  51.18877   0.00000  1      301
siesta:      0.00000  53.88292   0.00000  2      302
siesta:      0.00000  55.22999   2.33320  1      303
siesta:      0.00000  57.92414   2.33320  2      304
siesta:      0.00000  59.27121   4.66640  1      305
siesta:      0.00000  61.96535   4.66640  2      306
siesta:      0.00000  63.31243   6.99960  1      307
siesta:      0.00000  66.00657   6.99960  2      308
siesta:      0.00000  67.35365   9.33279  1      309
siesta:      0.00000  70.04779   9.33279  2      310
siesta:      0.00000  71.39486  11.66599  1      311
siesta:      0.00000  74.08901  11.66599  2      312
siesta:      0.00000  75.43608  13.99919  1      313
siesta:      0.00000  78.13023  13.99919  2      314
siesta:      0.00000  79.47730  16.33239  1      315
siesta:      0.00000  82.17145  16.33239  2      316
siesta:      0.00000  83.51852  18.66559  1      317
siesta:      0.00000  86.21267  18.66559  2      318
siesta:      0.00000  87.55974  20.99879  1      319
siesta:      0.00000  90.25388  20.99879  2      320
siesta:      0.00000  91.60096  23.33199  1      321
siesta:      0.00000  94.29510  23.33199  2      322
siesta:      0.00000  95.64218  25.66519  1      323
siesta:      0.00000  98.33632  25.66519  2      324
siesta:      0.00000  99.68340  27.99838  1      325
siesta:      0.00000 102.37754  27.99838  2      326
siesta:      0.00000 103.72461  30.33158  1      327
siesta:      0.00000 106.41876  30.33158  2      328
siesta:      0.00000 107.76583  32.66478  1      329
siesta:      0.00000 110.45998  32.66478  2      330
siesta:      0.00000 111.80705  34.99798  1      331
siesta:      0.00000 114.50120  34.99798  2      332
siesta:      0.00000 115.84827  37.33118  1      333
siesta:      0.00000 118.54242  37.33118  2      334
siesta:      0.00000 119.88949  39.66438  1      335
siesta:      0.00000 122.58363  39.66438  2      336
siesta:      0.00000  30.98268 -16.33239  1      337
siesta:      0.00000  33.67682 -16.33239  2      338
siesta:      0.00000  35.02390 -13.99919  1      339
siesta:      0.00000  37.71804 -13.99919  2      340
siesta:      0.00000  39.06511 -11.66599  1      341
siesta:      0.00000  41.75926 -11.66599  2      342
siesta:      0.00000  43.10633  -9.33279  1      343
siesta:      0.00000  45.80048  -9.33279  2      344
siesta:      0.00000  47.14755  -6.99960  1      345
siesta:      0.00000  49.84170  -6.99960  2      346
siesta:      0.00000  51.18877  -4.66640  1      347
siesta:      0.00000  53.88292  -4.66640  2      348
siesta:      0.00000  55.22999  -2.33320  1      349
siesta:      0.00000  57.92414  -2.33320  2      350
siesta:      0.00000  59.27121   0.00000  1      351
siesta:      0.00000  61.96535   0.00000  2      352
siesta:      0.00000  63.31243   2.33320  1      353
siesta:      0.00000  66.00657   2.33320  2      354
siesta:      0.00000  67.35365   4.66640  1      355
siesta:      0.00000  70.04779   4.66640  2      356
siesta:      0.00000  71.39486   6.99960  1      357
siesta:      0.00000  74.08901   6.99960  2      358
siesta:      0.00000  75.43608   9.33279  1      359
siesta:      0.00000  78.13023   9.33279  2      360
siesta:      0.00000  79.47730  11.66599  1      361
siesta:      0.00000  82.17145  11.66599  2      362
siesta:      0.00000  83.51852  13.99919  1      363
siesta:      0.00000  86.21267  13.99919  2      364
siesta:      0.00000  87.55974  16.33239  1      365
siesta:      0.00000  90.25388  16.33239  2      366
siesta:      0.00000  91.60096  18.66559  1      367
siesta:      0.00000  94.29510  18.66559  2      368
siesta:      0.00000  95.64218  20.99879  1      369
siesta:      0.00000  98.33632  20.99879  2      370
siesta:      0.00000  99.68340  23.33199  1      371
siesta:      0.00000 102.37754  23.33199  2      372
siesta:      0.00000 103.72461  25.66519  1      373
siesta:      0.00000 106.41876  25.66519  2      374
siesta:      0.00000 107.76583  27.99838  1      375
siesta:      0.00000 110.45998  27.99838  2      376
siesta:      0.00000 111.80705  30.33158  1      377
siesta:      0.00000 114.50120  30.33158  2      378
siesta:      0.00000 115.84827  32.66478  1      379
siesta:      0.00000 118.54242  32.66478  2      380
siesta:      0.00000 119.88949  34.99798  1      381
siesta:      0.00000 122.58363  34.99798  2      382
siesta:      0.00000 123.93071  37.33118  1      383
siesta:      0.00000 126.62485  37.33118  2      384
siesta:      0.00000  35.02390 -18.66559  1      385
siesta:      0.00000  37.71804 -18.66559  2      386
siesta:      0.00000  39.06511 -16.33239  1      387
siesta:      0.00000  41.75926 -16.33239  2      388
siesta:      0.00000  43.10633 -13.99919  1      389
siesta:      0.00000  45.80048 -13.99919  2      390
siesta:      0.00000  47.14755 -11.66599  1      391
siesta:      0.00000  49.84170 -11.66599  2      392
siesta:      0.00000  51.18877  -9.33279  1      393
siesta:      0.00000  53.88292  -9.33279  2      394
siesta:      0.00000  55.22999  -6.99960  1      395
siesta:      0.00000  57.92414  -6.99960  2      396
siesta:      0.00000  59.27121  -4.66640  1      397
siesta:      0.00000  61.96535  -4.66640  2      398
siesta:      0.00000  63.31243  -2.33320  1      399
siesta:      0.00000  66.00657  -2.33320  2      400
siesta:      0.00000  67.35365   0.00000  1      401
siesta:      0.00000  70.04779   0.00000  2      402
siesta:      0.00000  71.39486   2.33320  1      403
siesta:      0.00000  74.08901   2.33320  2      404
siesta:      0.00000  75.43608   4.66640  1      405
siesta:      0.00000  78.13023   4.66640  2      406
siesta:      0.00000  79.47730   6.99960  1      407
siesta:      0.00000  82.17145   6.99960  2      408
siesta:      0.00000  83.51852   9.33279  1      409
siesta:      0.00000  86.21267   9.33279  2      410
siesta:      0.00000  87.55974  11.66599  1      411
siesta:      0.00000  90.25388  11.66599  2      412
siesta:      0.00000  91.60096  13.99919  1      413
siesta:      0.00000  94.29510  13.99919  2      414
siesta:      0.00000  95.64218  16.33239  1      415
siesta:      0.00000  98.33632  16.33239  2      416
siesta:      0.00000  99.68340  18.66559  1      417
siesta:      0.00000 102.37754  18.66559  2      418
siesta:      0.00000 103.72461  20.99879  1      419
siesta:      0.00000 106.41876  20.99879  2      420
siesta:      0.00000 107.76583  23.33199  1      421
siesta:      0.00000 110.45998  23.33199  2      422
siesta:      0.00000 111.80705  25.66519  1      423
siesta:      0.00000 114.50120  25.66519  2      424
siesta:      0.00000 115.84827  27.99838  1      425
siesta:      0.00000 118.54242  27.99838  2      426
siesta:      0.00000 119.88949  30.33158  1      427
siesta:      0.00000 122.58363  30.33158  2      428
siesta:      0.00000 123.93071  32.66478  1      429
siesta:      0.00000 126.62485  32.66478  2      430
siesta:      0.00000 127.97193  34.99798  1      431
siesta:      0.00000 130.66607  34.99798  2      432
siesta:      0.00000  39.06511 -20.99879  1      433
siesta:      0.00000  41.75926 -20.99879  2      434
siesta:      0.00000  43.10633 -18.66559  1      435
siesta:      0.00000  45.80048 -18.66559  2      436
siesta:      0.00000  47.14755 -16.33239  1      437
siesta:      0.00000  49.84170 -16.33239  2      438
siesta:      0.00000  51.18877 -13.99919  1      439
siesta:      0.00000  53.88292 -13.99919  2      440
siesta:      0.00000  55.22999 -11.66599  1      441
siesta:      0.00000  57.92414 -11.66599  2      442
siesta:      0.00000  59.27121  -9.33279  1      443
siesta:      0.00000  61.96535  -9.33279  2      444
siesta:      0.00000  63.31243  -6.99960  1      445
siesta:      0.00000  66.00657  -6.99960  2      446
siesta:      0.00000  67.35365  -4.66640  1      447
siesta:      0.00000  70.04779  -4.66640  2      448
siesta:      0.00000  71.39486  -2.33320  1      449
siesta:      0.00000  74.08901  -2.33320  2      450
siesta:      0.00000  75.43608   0.00000  1      451
siesta:      0.00000  78.13023   0.00000  2      452
siesta:      0.00000  79.47730   2.33320  1      453
siesta:      0.00000  82.17145   2.33320  2      454
siesta:      0.00000  83.51852   4.66640  1      455
siesta:      0.00000  86.21267   4.66640  2      456
siesta:      0.00000  87.55974   6.99960  1      457
siesta:      0.00000  90.25388   6.99960  2      458
siesta:      0.00000  91.60096   9.33279  1      459
siesta:      0.00000  94.29510   9.33279  2      460
siesta:      0.00000  95.64218  11.66599  1      461
siesta:      0.00000  98.33632  11.66599  2      462
siesta:      0.00000  99.68340  13.99919  1      463
siesta:      0.00000 102.37754  13.99919  2      464
siesta:      0.00000 103.72461  16.33239  1      465
siesta:      0.00000 106.41876  16.33239  2      466
siesta:      0.00000 107.76583  18.66559  1      467
siesta:      0.00000 110.45998  18.66559  2      468
siesta:      0.00000 111.80705  20.99879  1      469
siesta:      0.00000 114.50120  20.99879  2      470
siesta:      0.00000 115.84827  23.33199  1      471
siesta:      0.00000 118.54242  23.33199  2      472
siesta:      0.00000 119.88949  25.66519  1      473
siesta:      0.00000 122.58363  25.66519  2      474
siesta:      0.00000 123.93071  27.99838  1      475
siesta:      0.00000 126.62485  27.99838  2      476
siesta:      0.00000 127.97193  30.33158  1      477
siesta:      0.00000 130.66607  30.33158  2      478
siesta:      0.00000 132.01314  32.66478  1      479
siesta:      0.00000 134.70729  32.66478  2      480
siesta:      0.00000  43.10633 -23.33199  1      481
siesta:      0.00000  45.80048 -23.33199  2      482
siesta:      0.00000  47.14755 -20.99879  1      483
siesta:      0.00000  49.84170 -20.99879  2      484
siesta:      0.00000  51.18877 -18.66559  1      485
siesta:      0.00000  53.88292 -18.66559  2      486
siesta:      0.00000  55.22999 -16.33239  1      487
siesta:      0.00000  57.92414 -16.33239  2      488
siesta:      0.00000  59.27121 -13.99919  1      489
siesta:      0.00000  61.96535 -13.99919  2      490
siesta:      0.00000  63.31243 -11.66599  1      491
siesta:      0.00000  66.00657 -11.66599  2      492
siesta:      0.00000  67.35365  -9.33279  1      493
siesta:      0.00000  70.04779  -9.33279  2      494
siesta:      0.00000  71.39486  -6.99960  1      495
siesta:      0.00000  74.08901  -6.99960  2      496
siesta:      0.00000  75.43608  -4.66640  1      497
siesta:      0.00000  78.13023  -4.66640  2      498
siesta:      0.00000  79.47730  -2.33320  1      499
siesta:      0.00000  82.17145  -2.33320  2      500
siesta:      0.00000  83.51852   0.00000  1      501
siesta:      0.00000  86.21267   0.00000  2      502
siesta:      0.00000  87.55974   2.33320  1      503
siesta:      0.00000  90.25388   2.33320  2      504
siesta:      0.00000  91.60096   4.66640  1      505
siesta:      0.00000  94.29510   4.66640  2      506
siesta:      0.00000  95.64218   6.99960  1      507
siesta:      0.00000  98.33632   6.99960  2      508
siesta:      0.00000  99.68340   9.33279  1      509
siesta:      0.00000 102.37754   9.33279  2      510
siesta:      0.00000 103.72461  11.66599  1      511
siesta:      0.00000 106.41876  11.66599  2      512
siesta:      0.00000 107.76583  13.99919  1      513
siesta:      0.00000 110.45998  13.99919  2      514
siesta:      0.00000 111.80705  16.33239  1      515
siesta:      0.00000 114.50120  16.33239  2      516
siesta:      0.00000 115.84827  18.66559  1      517
siesta:      0.00000 118.54242  18.66559  2      518
siesta:      0.00000 119.88949  20.99879  1      519
siesta:      0.00000 122.58363  20.99879  2      520
siesta:      0.00000 123.93071  23.33199  1      521
siesta:      0.00000 126.62485  23.33199  2      522
siesta:      0.00000 127.97193  25.66519  1      523
siesta:      0.00000 130.66607  25.66519  2      524
siesta:      0.00000 132.01314  27.99838  1      525
siesta:      0.00000 134.70729  27.99838  2      526
siesta:      0.00000 136.05436  30.33158  1      527
siesta:      0.00000 138.74851  30.33158  2      528
siesta:      0.00000  47.14755 -25.66519  1      529
siesta:      0.00000  49.84170 -25.66519  2      530
siesta:      0.00000  51.18877 -23.33199  1      531
siesta:      0.00000  53.88292 -23.33199  2      532
siesta:      0.00000  55.22999 -20.99879  1      533
siesta:      0.00000  57.92414 -20.99879  2      534
siesta:      0.00000  59.27121 -18.66559  1      535
siesta:      0.00000  61.96535 -18.66559  2      536
siesta:      0.00000  63.31243 -16.33239  1      537
siesta:      0.00000  66.00657 -16.33239  2      538
siesta:      0.00000  67.35365 -13.99919  1      539
siesta:      0.00000  70.04779 -13.99919  2      540
siesta:      0.00000  71.39486 -11.66599  1      541
siesta:      0.00000  74.08901 -11.66599  2      542
siesta:      0.00000  75.43608  -9.33279  1      543
siesta:      0.00000  78.13023  -9.33279  2      544
siesta:      0.00000  79.47730  -6.99960  1      545
siesta:      0.00000  82.17145  -6.99960  2      546
siesta:      0.00000  83.51852  -4.66640  1      547
siesta:      0.00000  86.21267  -4.66640  2      548
siesta:      0.00000  87.55974  -2.33320  1      549
siesta:      0.00000  90.25388  -2.33320  2      550
siesta:      0.00000  91.60096   0.00000  1      551
siesta:      0.00000  94.29510   0.00000  2      552
siesta:      0.00000  95.64218   2.33320  1      553
siesta:      0.00000  98.33632   2.33320  2      554
siesta:      0.00000  99.68340   4.66640  1      555
siesta:      0.00000 102.37754   4.66640  2      556
siesta:      0.00000 103.72461   6.99960  1      557
siesta:      0.00000 106.41876   6.99960  2      558
siesta:      0.00000 107.76583   9.33279  1      559
siesta:      0.00000 110.45998   9.33279  2      560
siesta:      0.00000 111.80705  11.66599  1      561
siesta:      0.00000 114.50120  11.66599  2      562
siesta:      0.00000 115.84827  13.99919  1      563
siesta:      0.00000 118.54242  13.99919  2      564
siesta:      0.00000 119.88949  16.33239  1      565
siesta:      0.00000 122.58363  16.33239  2      566
siesta:      0.00000 123.93071  18.66559  1      567
siesta:      0.00000 126.62485  18.66559  2      568
siesta:      0.00000 127.97193  20.99879  1      569
siesta:      0.00000 130.66607  20.99879  2      570
siesta:      0.00000 132.01314  23.33199  1      571
siesta:      0.00000 134.70729  23.33199  2      572
siesta:      0.00000 136.05436  25.66519  1      573
siesta:      0.00000 138.74851  25.66519  2      574
siesta:      0.00000 140.09558  27.99838  1      575
siesta:      0.00000 142.78973  27.99838  2      576
siesta:      0.00000  51.18877 -27.99838  1      577
siesta:      0.00000  53.88292 -27.99838  2      578
siesta:      0.00000  55.22999 -25.66519  1      579
siesta:      0.00000  57.92414 -25.66519  2      580
siesta:      0.00000  59.27121 -23.33199  1      581
siesta:      0.00000  61.96535 -23.33199  2      582
siesta:      0.00000  63.31243 -20.99879  1      583
siesta:      0.00000  66.00657 -20.99879  2      584
siesta:      0.00000  67.35365 -18.66559  1      585
siesta:      0.00000  70.04779 -18.66559  2      586
siesta:      0.00000  71.39486 -16.33239  1      587
siesta:      0.00000  74.08901 -16.33239  2      588
siesta:      0.00000  75.43608 -13.99919  1      589
siesta:      0.00000  78.13023 -13.99919  2      590
siesta:      0.00000  79.47730 -11.66599  1      591
siesta:      0.00000  82.17145 -11.66599  2      592
siesta:      0.00000  83.51852  -9.33279  1      593
siesta:      0.00000  86.21267  -9.33279  2      594
siesta:      0.00000  87.55974  -6.99960  1      595
siesta:      0.00000  90.25388  -6.99960  2      596
siesta:      0.00000  91.60096  -4.66640  1      597
siesta:      0.00000  94.29510  -4.66640  2      598
siesta:      0.00000  95.64218  -2.33320  1      599
siesta:      0.00000  98.33632  -2.33320  2      600
siesta:      0.00000  99.68340   0.00000  1      601
siesta:      0.00000 102.37754   0.00000  2      602
siesta:      0.00000 103.72461   2.33320  1      603
siesta:      0.00000 106.41876   2.33320  2      604
siesta:      0.00000 107.76583   4.66640  1      605
siesta:      0.00000 110.45998   4.66640  2      606
siesta:      0.00000 111.80705   6.99960  1      607
siesta:      0.00000 114.50120   6.99960  2      608
siesta:      0.00000 115.84827   9.33279  1      609
siesta:      0.00000 118.54242   9.33279  2      610
siesta:      0.00000 119.88949  11.66599  1      611
siesta:      0.00000 122.58363  11.66599  2      612
siesta:      0.00000 123.93071  13.99919  1      613
siesta:      0.00000 126.62485  13.99919  2      614
siesta:      0.00000 127.97193  16.33239  1      615
siesta:      0.00000 130.66607  16.33239  2      616
siesta:      0.00000 132.01314  18.66559  1      617
siesta:      0.00000 134.70729  18.66559  2      618
siesta:      0.00000 136.05436  20.99879  1      619
siesta:      0.00000 138.74851  20.99879  2      620
siesta:      0.00000 140.09558  23.33199  1      621
siesta:      0.00000 142.78973  23.33199  2      622
siesta:      0.00000 144.13680  25.66519  1      623
siesta:      0.00000 146.83095  25.66519  2      624
siesta:      0.00000  55.22999 -30.33158  1      625
siesta:      0.00000  57.92414 -30.33158  2      626
siesta:      0.00000  59.27121 -27.99838  1      627
siesta:      0.00000  61.96535 -27.99838  2      628
siesta:      0.00000  63.31243 -25.66519  1      629
siesta:      0.00000  66.00657 -25.66519  2      630
siesta:      0.00000  67.35365 -23.33199  1      631
siesta:      0.00000  70.04779 -23.33199  2      632
siesta:      0.00000  71.39486 -20.99879  1      633
siesta:      0.00000  74.08901 -20.99879  2      634
siesta:      0.00000  75.43608 -18.66559  1      635
siesta:      0.00000  78.13023 -18.66559  2      636
siesta:      0.00000  79.47730 -16.33239  1      637
siesta:      0.00000  82.17145 -16.33239  2      638
siesta:      0.00000  83.51852 -13.99919  1      639
siesta:      0.00000  86.21267 -13.99919  2      640
siesta:      0.00000  87.55974 -11.66599  1      641
siesta:      0.00000  90.25388 -11.66599  2      642
siesta:      0.00000  91.60096  -9.33279  1      643
siesta:      0.00000  94.29510  -9.33279  2      644
siesta:      0.00000  95.64218  -6.99960  1      645
siesta:      0.00000  98.33632  -6.99960  2      646
siesta:      0.00000  99.68340  -4.66640  1      647
siesta:      0.00000 102.37754  -4.66640  2      648
siesta:      0.00000 103.72461  -2.33320  1      649
siesta:      0.00000 106.41876  -2.33320  2      650
siesta:      0.00000 107.76583   0.00000  1      651
siesta:      0.00000 110.45998   0.00000  2      652
siesta:      0.00000 111.80705   2.33320  1      653
siesta:      0.00000 114.50120   2.33320  2      654
siesta:      0.00000 115.84827   4.66640  1      655
siesta:      0.00000 118.54242   4.66640  2      656
siesta:      0.00000 119.88949   6.99960  1      657
siesta:      0.00000 122.58363   6.99960  2      658
siesta:      0.00000 123.93071   9.33279  1      659
siesta:      0.00000 126.62485   9.33279  2      660
siesta:      0.00000 127.97193  11.66599  1      661
siesta:      0.00000 130.66607  11.66599  2      662
siesta:      0.00000 132.01314  13.99919  1      663
siesta:      0.00000 134.70729  13.99919  2      664
siesta:      0.00000 136.05436  16.33239  1      665
siesta:      0.00000 138.74851  16.33239  2      666
siesta:      0.00000 140.09558  18.66559  1      667
siesta:      0.00000 142.78973  18.66559  2      668
siesta:      0.00000 144.13680  20.99879  1      669
siesta:      0.00000 146.83095  20.99879  2      670
siesta:      0.00000 148.17802  23.33199  1      671
siesta:      0.00000 150.87217  23.33199  2      672
siesta:      0.00000  59.27121 -32.66478  1      673
siesta:      0.00000  61.96535 -32.66478  2      674
siesta:      0.00000  63.31243 -30.33158  1      675
siesta:      0.00000  66.00657 -30.33158  2      676
siesta:      0.00000  67.35365 -27.99838  1      677
siesta:      0.00000  70.04779 -27.99838  2      678
siesta:      0.00000  71.39486 -25.66519  1      679
siesta:      0.00000  74.08901 -25.66519  2      680
siesta:      0.00000  75.43608 -23.33199  1      681
siesta:      0.00000  78.13023 -23.33199  2      682
siesta:      0.00000  79.47730 -20.99879  1      683
siesta:      0.00000  82.17145 -20.99879  2      684
siesta:      0.00000  83.51852 -18.66559  1      685
siesta:      0.00000  86.21267 -18.66559  2      686
siesta:      0.00000  87.55974 -16.33239  1      687
siesta:      0.00000  90.25388 -16.33239  2      688
siesta:      0.00000  91.60096 -13.99919  1      689
siesta:      0.00000  94.29510 -13.99919  2      690
siesta:      0.00000  95.64218 -11.66599  1      691
siesta:      0.00000  98.33632 -11.66599  2      692
siesta:      0.00000  99.68340  -9.33279  1      693
siesta:      0.00000 102.37754  -9.33279  2      694
siesta:      0.00000 103.72461  -6.99960  1      695
siesta:      0.00000 106.41876  -6.99960  2      696
siesta:      0.00000 107.76583  -4.66640  1      697
siesta:      0.00000 110.45998  -4.66640  2      698
siesta:      0.00000 111.80705  -2.33320  1      699
siesta:      0.00000 114.50120  -2.33320  2      700
siesta:      0.00000 115.84827   0.00000  1      701
siesta:      0.00000 118.54242   0.00000  2      702
siesta:      0.00000 119.88949   2.33320  1      703
siesta:      0.00000 122.58363   2.33320  2      704
siesta:      0.00000 123.93071   4.66640  1      705
siesta:      0.00000 126.62485   4.66640  2      706
siesta:      0.00000 127.97193   6.99960  1      707
siesta:      0.00000 130.66607   6.99960  2      708
siesta:      0.00000 132.01314   9.33279  1      709
siesta:      0.00000 134.70729   9.33279  2      710
siesta:      0.00000 136.05436  11.66599  1      711
siesta:      0.00000 138.74851  11.66599  2      712
siesta:      0.00000 140.09558  13.99919  1      713
siesta:      0.00000 142.78973  13.99919  2      714
siesta:      0.00000 144.13680  16.33239  1      715
siesta:      0.00000 146.83095  16.33239  2      716
siesta:      0.00000 148.17802  18.66559  1      717
siesta:      0.00000 150.87217  18.66559  2      718
siesta:      0.00000 152.21924  20.99879  1      719
siesta:      0.00000 154.91338  20.99879  2      720
siesta:      0.00000  63.31243 -34.99798  1      721
siesta:      0.00000  66.00657 -34.99798  2      722
siesta:      0.00000  67.35365 -32.66478  1      723
siesta:      0.00000  70.04779 -32.66478  2      724
siesta:      0.00000  71.39486 -30.33158  1      725
siesta:      0.00000  74.08901 -30.33158  2      726
siesta:      0.00000  75.43608 -27.99838  1      727
siesta:      0.00000  78.13023 -27.99838  2      728
siesta:      0.00000  79.47730 -25.66519  1      729
siesta:      0.00000  82.17145 -25.66519  2      730
siesta:      0.00000  83.51852 -23.33199  1      731
siesta:      0.00000  86.21267 -23.33199  2      732
siesta:      0.00000  87.55974 -20.99879  1      733
siesta:      0.00000  90.25388 -20.99879  2      734
siesta:      0.00000  91.60096 -18.66559  1      735
siesta:      0.00000  94.29510 -18.66559  2      736
siesta:      0.00000  95.64218 -16.33239  1      737
siesta:      0.00000  98.33632 -16.33239  2      738
siesta:      0.00000  99.68340 -13.99919  1      739
siesta:      0.00000 102.37754 -13.99919  2      740
siesta:      0.00000 103.72461 -11.66599  1      741
siesta:      0.00000 106.41876 -11.66599  2      742
siesta:      0.00000 107.76583  -9.33279  1      743
siesta:      0.00000 110.45998  -9.33279  2      744
siesta:      0.00000 111.80705  -6.99960  1      745
siesta:      0.00000 114.50120  -6.99960  2      746
siesta:      0.00000 115.84827  -4.66640  1      747
siesta:      0.00000 118.54242  -4.66640  2      748
siesta:      0.00000 119.88949  -2.33320  1      749
siesta:      0.00000 122.58363  -2.33320  2      750
siesta:      0.00000 123.93071   0.00000  1      751
siesta:      0.00000 126.62485   0.00000  2      752
siesta:      0.00000 127.97193   2.33320  1      753
siesta:      0.00000 130.66607   2.33320  2      754
siesta:      0.00000 132.01314   4.66640  1      755
siesta:      0.00000 134.70729   4.66640  2      756
siesta:      0.00000 136.05436   6.99960  1      757
siesta:      0.00000 138.74851   6.99960  2      758
siesta:      0.00000 140.09558   9.33279  1      759
siesta:      0.00000 142.78973   9.33279  2      760
siesta:      0.00000 144.13680  11.66599  1      761
siesta:      0.00000 146.83095  11.66599  2      762
siesta:      0.00000 148.17802  13.99919  1      763
siesta:      0.00000 150.87217  13.99919  2      764
siesta:      0.00000 152.21924  16.33239  1      765
siesta:      0.00000 154.91338  16.33239  2      766
siesta:      0.00000 156.26046  18.66559  1      767
siesta:      0.00000 158.95460  18.66559  2      768
siesta:      0.00000  67.35365 -37.33118  1      769
siesta:      0.00000  70.04779 -37.33118  2      770
siesta:      0.00000  71.39486 -34.99798  1      771
siesta:      0.00000  74.08901 -34.99798  2      772
siesta:      0.00000  75.43608 -32.66478  1      773
siesta:      0.00000  78.13023 -32.66478  2      774
siesta:      0.00000  79.47730 -30.33158  1      775
siesta:      0.00000  82.17145 -30.33158  2      776
siesta:      0.00000  83.51852 -27.99838  1      777
siesta:      0.00000  86.21267 -27.99838  2      778
siesta:      0.00000  87.55974 -25.66519  1      779
siesta:      0.00000  90.25388 -25.66519  2      780
siesta:      0.00000  91.60096 -23.33199  1      781
siesta:      0.00000  94.29510 -23.33199  2      782
siesta:      0.00000  95.64218 -20.99879  1      783
siesta:      0.00000  98.33632 -20.99879  2      784
siesta:      0.00000  99.68340 -18.66559  1      785
siesta:      0.00000 102.37754 -18.66559  2      786
siesta:      0.00000 103.72461 -16.33239  1      787
siesta:      0.00000 106.41876 -16.33239  2      788
siesta:      0.00000 107.76583 -13.99919  1      789
siesta:      0.00000 110.45998 -13.99919  2      790
siesta:      0.00000 111.80705 -11.66599  1      791
siesta:      0.00000 114.50120 -11.66599  2      792
siesta:      0.00000 115.84827  -9.33279  1      793
siesta:      0.00000 118.54242  -9.33279  2      794
siesta:      0.00000 119.88949  -6.99960  1      795
siesta:      0.00000 122.58363  -6.99960  2      796
siesta:      0.00000 123.93071  -4.66640  1      797
siesta:      0.00000 126.62485  -4.66640  2      798
siesta:      0.00000 127.97193  -2.33320  1      799
siesta:      0.00000 130.66607  -2.33320  2      800
siesta:      0.00000 132.01314   0.00000  1      801
siesta:      0.00000 134.70729   0.00000  2      802
siesta:      0.00000 136.05436   2.33320  1      803
siesta:      0.00000 138.74851   2.33320  2      804
siesta:      0.00000 140.09558   4.66640  1      805
siesta:      0.00000 142.78973   4.66640  2      806
siesta:      0.00000 144.13680   6.99960  1      807
siesta:      0.00000 146.83095   6.99960  2      808
siesta:      0.00000 148.17802   9.33279  1      809
siesta:      0.00000 150.87217   9.33279  2      810
siesta:      0.00000 152.21924  11.66599  1      811
siesta:      0.00000 154.91338  11.66599  2      812
siesta:      0.00000 156.26046  13.99919  1      813
siesta:      0.00000 158.95460  13.99919  2      814
siesta:      0.00000 160.30168  16.33239  1      815
siesta:      0.00000 162.99582  16.33239  2      816
siesta:      0.00000  71.39486 -39.66438  1      817
siesta:      0.00000  74.08901 -39.66438  2      818
siesta:      0.00000  75.43608 -37.33118  1      819
siesta:      0.00000  78.13023 -37.33118  2      820
siesta:      0.00000  79.47730 -34.99798  1      821
siesta:      0.00000  82.17145 -34.99798  2      822
siesta:      0.00000  83.51852 -32.66478  1      823
siesta:      0.00000  86.21267 -32.66478  2      824
siesta:      0.00000  87.55974 -30.33158  1      825
siesta:      0.00000  90.25388 -30.33158  2      826
siesta:      0.00000  91.60096 -27.99838  1      827
siesta:      0.00000  94.29510 -27.99838  2      828
siesta:      0.00000  95.64218 -25.66519  1      829
siesta:      0.00000  98.33632 -25.66519  2      830
siesta:      0.00000  99.68340 -23.33199  1      831
siesta:      0.00000 102.37754 -23.33199  2      832
siesta:      0.00000 103.72461 -20.99879  1      833
siesta:      0.00000 106.41876 -20.99879  2      834
siesta:      0.00000 107.76583 -18.66559  1      835
siesta:      0.00000 110.45998 -18.66559  2      836
siesta:      0.00000 111.80705 -16.33239  1      837
siesta:      0.00000 114.50120 -16.33239  2      838
siesta:      0.00000 115.84827 -13.99919  1      839
siesta:      0.00000 118.54242 -13.99919  2      840
siesta:      0.00000 119.88949 -11.66599  1      841
siesta:      0.00000 122.58363 -11.66599  2      842
siesta:      0.00000 123.93071  -9.33279  1      843
siesta:      0.00000 126.62485  -9.33279  2      844
siesta:      0.00000 127.97193  -6.99960  1      845
siesta:      0.00000 130.66607  -6.99960  2      846
siesta:      0.00000 132.01314  -4.66640  1      847
siesta:      0.00000 134.70729  -4.66640  2      848
siesta:      0.00000 136.05436  -2.33320  1      849
siesta:      0.00000 138.74851  -2.33320  2      850
siesta:      0.00000 140.09558   0.00000  1      851
siesta:      0.00000 142.78973   0.00000  2      852
siesta:      0.00000 144.13680   2.33320  1      853
siesta:      0.00000 146.83095   2.33320  2      854
siesta:      0.00000 148.17802   4.66640  1      855
siesta:      0.00000 150.87217   4.66640  2      856
siesta:      0.00000 152.21924   6.99960  1      857
siesta:      0.00000 154.91338   6.99960  2      858
siesta:      0.00000 156.26046   9.33279  1      859
siesta:      0.00000 158.95460   9.33279  2      860
siesta:      0.00000 160.30168  11.66599  1      861
siesta:      0.00000 162.99582  11.66599  2      862
siesta:      0.00000 164.34289  13.99919  1      863
siesta:      0.00000 167.03704  13.99919  2      864
siesta:      0.00000  75.43608 -41.99758  1      865
siesta:      0.00000  78.13023 -41.99758  2      866
siesta:      0.00000  79.47730 -39.66438  1      867
siesta:      0.00000  82.17145 -39.66438  2      868
siesta:      0.00000  83.51852 -37.33118  1      869
siesta:      0.00000  86.21267 -37.33118  2      870
siesta:      0.00000  87.55974 -34.99798  1      871
siesta:      0.00000  90.25388 -34.99798  2      872
siesta:      0.00000  91.60096 -32.66478  1      873
siesta:      0.00000  94.29510 -32.66478  2      874
siesta:      0.00000  95.64218 -30.33158  1      875
siesta:      0.00000  98.33632 -30.33158  2      876
siesta:      0.00000  99.68340 -27.99838  1      877
siesta:      0.00000 102.37754 -27.99838  2      878
siesta:      0.00000 103.72461 -25.66519  1      879
siesta:      0.00000 106.41876 -25.66519  2      880
siesta:      0.00000 107.76583 -23.33199  1      881
siesta:      0.00000 110.45998 -23.33199  2      882
siesta:      0.00000 111.80705 -20.99879  1      883
siesta:      0.00000 114.50120 -20.99879  2      884
siesta:      0.00000 115.84827 -18.66559  1      885
siesta:      0.00000 118.54242 -18.66559  2      886
siesta:      0.00000 119.88949 -16.33239  1      887
siesta:      0.00000 122.58363 -16.33239  2      888
siesta:      0.00000 123.93071 -13.99919  1      889
siesta:      0.00000 126.62485 -13.99919  2      890
siesta:      0.00000 127.97193 -11.66599  1      891
siesta:      0.00000 130.66607 -11.66599  2      892
siesta:      0.00000 132.01314  -9.33279  1      893
siesta:      0.00000 134.70729  -9.33279  2      894
siesta:      0.00000 136.05436  -6.99960  1      895
siesta:      0.00000 138.74851  -6.99960  2      896
siesta:      0.00000 140.09558  -4.66640  1      897
siesta:      0.00000 142.78973  -4.66640  2      898
siesta:      0.00000 144.13680  -2.33320  1      899
siesta:      0.00000 146.83095  -2.33320  2      900
siesta:      0.00000 148.17802   0.00000  1      901
siesta:      0.00000 150.87217   0.00000  2      902
siesta:      0.00000 152.21924   2.33320  1      903
siesta:      0.00000 154.91338   2.33320  2      904
siesta:      0.00000 156.26046   4.66640  1      905
siesta:      0.00000 158.95460   4.66640  2      906
siesta:      0.00000 160.30168   6.99960  1      907
siesta:      0.00000 162.99582   6.99960  2      908
siesta:      0.00000 164.34289   9.33279  1      909
siesta:      0.00000 167.03704   9.33279  2      910
siesta:      0.00000 168.38411  11.66599  1      911
siesta:      0.00000 171.07826  11.66599  2      912
siesta:      0.00000  79.47730 -44.33078  1      913
siesta:      0.00000  82.17145 -44.33078  2      914
siesta:      0.00000  83.51852 -41.99758  1      915
siesta:      0.00000  86.21267 -41.99758  2      916
siesta:      0.00000  87.55974 -39.66438  1      917
siesta:      0.00000  90.25388 -39.66438  2      918
siesta:      0.00000  91.60096 -37.33118  1      919
siesta:      0.00000  94.29510 -37.33118  2      920
siesta:      0.00000  95.64218 -34.99798  1      921
siesta:      0.00000  98.33632 -34.99798  2      922
siesta:      0.00000  99.68340 -32.66478  1      923
siesta:      0.00000 102.37754 -32.66478  2      924
siesta:      0.00000 103.72461 -30.33158  1      925
siesta:      0.00000 106.41876 -30.33158  2      926
siesta:      0.00000 107.76583 -27.99838  1      927
siesta:      0.00000 110.45998 -27.99838  2      928
siesta:      0.00000 111.80705 -25.66519  1      929
siesta:      0.00000 114.50120 -25.66519  2      930
siesta:      0.00000 115.84827 -23.33199  1      931
siesta:      0.00000 118.54242 -23.33199  2      932
siesta:      0.00000 119.88949 -20.99879  1      933
siesta:      0.00000 122.58363 -20.99879  2      934
siesta:      0.00000 123.93071 -18.66559  1      935
siesta:      0.00000 126.62485 -18.66559  2      936
siesta:      0.00000 127.97193 -16.33239  1      937
siesta:      0.00000 130.66607 -16.33239  2      938
siesta:      0.00000 132.01314 -13.99919  1      939
siesta:      0.00000 134.70729 -13.99919  2      940
siesta:      0.00000 136.05436 -11.66599  1      941
siesta:      0.00000 138.74851 -11.66599  2      942
siesta:      0.00000 140.09558  -9.33279  1      943
siesta:      0.00000 142.78973  -9.33279  2      944
siesta:      0.00000 144.13680  -6.99960  1      945
siesta:      0.00000 146.83095  -6.99960  2      946
siesta:      0.00000 148.17802  -4.66640  1      947
siesta:      0.00000 150.87217  -4.66640  2      948
siesta:      0.00000 152.21924  -2.33320  1      949
siesta:      0.00000 154.91338  -2.33320  2      950
siesta:      0.00000 156.26046   0.00000  1      951
siesta:      0.00000 158.95460   0.00000  2      952
siesta:      0.00000 160.30168   2.33320  1      953
siesta:      0.00000 162.99582   2.33320  2      954
siesta:      0.00000 164.34289   4.66640  1      955
siesta:      0.00000 167.03704   4.66640  2      956
siesta:      0.00000 168.38411   6.99960  1      957
siesta:      0.00000 171.07826   6.99960  2      958
siesta:      0.00000 172.42533   9.33279  1      959
siesta:      0.00000 175.11948   9.33279  2      960
siesta:      0.00000  83.51852 -46.66397  1      961
siesta:      0.00000  86.21267 -46.66397  2      962
siesta:      0.00000  87.55974 -44.33078  1      963
siesta:      0.00000  90.25388 -44.33078  2      964
siesta:      0.00000  91.60096 -41.99758  1      965
siesta:      0.00000  94.29510 -41.99758  2      966
siesta:      0.00000  95.64218 -39.66438  1      967
siesta:      0.00000  98.33632 -39.66438  2      968
siesta:      0.00000  99.68340 -37.33118  1      969
siesta:      0.00000 102.37754 -37.33118  2      970
siesta:      0.00000 103.72461 -34.99798  1      971
siesta:      0.00000 106.41876 -34.99798  2      972
siesta:      0.00000 107.76583 -32.66478  1      973
siesta:      0.00000 110.45998 -32.66478  2      974
siesta:      0.00000 111.80705 -30.33158  1      975
siesta:      0.00000 114.50120 -30.33158  2      976
siesta:      0.00000 115.84827 -27.99838  1      977
siesta:      0.00000 118.54242 -27.99838  2      978
siesta:      0.00000 119.88949 -25.66519  1      979
siesta:      0.00000 122.58363 -25.66519  2      980
siesta:      0.00000 123.93071 -23.33199  1      981
siesta:      0.00000 126.62485 -23.33199  2      982
siesta:      0.00000 127.97193 -20.99879  1      983
siesta:      0.00000 130.66607 -20.99879  2      984
siesta:      0.00000 132.01314 -18.66559  1      985
siesta:      0.00000 134.70729 -18.66559  2      986
siesta:      0.00000 136.05436 -16.33239  1      987
siesta:      0.00000 138.74851 -16.33239  2      988
siesta:      0.00000 140.09558 -13.99919  1      989
siesta:      0.00000 142.78973 -13.99919  2      990
siesta:      0.00000 144.13680 -11.66599  1      991
siesta:      0.00000 146.83095 -11.66599  2      992
siesta:      0.00000 148.17802  -9.33279  1      993
siesta:      0.00000 150.87217  -9.33279  2      994
siesta:      0.00000 152.21924  -6.99960  1      995
siesta:      0.00000 154.91338  -6.99960  2      996
siesta:      0.00000 156.26046  -4.66640  1      997
siesta:      0.00000 158.95460  -4.66640  2      998
siesta:      0.00000 160.30168  -2.33320  1      999
siesta:      0.00000 162.99582  -2.33320  2     1000
siesta:      0.00000 164.34289   0.00000  1     1001
siesta:      0.00000 167.03704   0.00000  2     1002
siesta:      0.00000 168.38411   2.33320  1     1003
siesta:      0.00000 171.07826   2.33320  2     1004
siesta:      0.00000 172.42533   4.66640  1     1005
siesta:      0.00000 175.11948   4.66640  2     1006
siesta:      0.00000 176.46655   6.99960  1     1007
siesta:      0.00000 179.16070   6.99960  2     1008
siesta:      0.00000  87.55974 -48.99717  1     1009
siesta:      0.00000  90.25388 -48.99717  2     1010
siesta:      0.00000  91.60096 -46.66397  1     1011
siesta:      0.00000  94.29510 -46.66397  2     1012
siesta:      0.00000  95.64218 -44.33078  1     1013
siesta:      0.00000  98.33632 -44.33078  2     1014
siesta:      0.00000  99.68340 -41.99758  1     1015
siesta:      0.00000 102.37754 -41.99758  2     1016
siesta:      0.00000 103.72461 -39.66438  1     1017
siesta:      0.00000 106.41876 -39.66438  2     1018
siesta:      0.00000 107.76583 -37.33118  1     1019
siesta:      0.00000 110.45998 -37.33118  2     1020
siesta:      0.00000 111.80705 -34.99798  1     1021
siesta:      0.00000 114.50120 -34.99798  2     1022
siesta:      0.00000 115.84827 -32.66478  1     1023
siesta:      0.00000 118.54242 -32.66478  2     1024
siesta:      0.00000 119.88949 -30.33158  1     1025
siesta:      0.00000 122.58363 -30.33158  2     1026
siesta:      0.00000 123.93071 -27.99838  1     1027
siesta:      0.00000 126.62485 -27.99838  2     1028
siesta:      0.00000 127.97193 -25.66519  1     1029
siesta:      0.00000 130.66607 -25.66519  2     1030
siesta:      0.00000 132.01314 -23.33199  1     1031
siesta:      0.00000 134.70729 -23.33199  2     1032
siesta:      0.00000 136.05436 -20.99879  1     1033
siesta:      0.00000 138.74851 -20.99879  2     1034
siesta:      0.00000 140.09558 -18.66559  1     1035
siesta:      0.00000 142.78973 -18.66559  2     1036
siesta:      0.00000 144.13680 -16.33239  1     1037
siesta:      0.00000 146.83095 -16.33239  2     1038
siesta:      0.00000 148.17802 -13.99919  1     1039
siesta:      0.00000 150.87217 -13.99919  2     1040
siesta:      0.00000 152.21924 -11.66599  1     1041
siesta:      0.00000 154.91338 -11.66599  2     1042
siesta:      0.00000 156.26046  -9.33279  1     1043
siesta:      0.00000 158.95460  -9.33279  2     1044
siesta:      0.00000 160.30168  -6.99960  1     1045
siesta:      0.00000 162.99582  -6.99960  2     1046
siesta:      0.00000 164.34289  -4.66640  1     1047
siesta:      0.00000 167.03704  -4.66640  2     1048
siesta:      0.00000 168.38411  -2.33320  1     1049
siesta:      0.00000 171.07826  -2.33320  2     1050
siesta:      0.00000 172.42533   0.00000  1     1051
siesta:      0.00000 175.11948   0.00000  2     1052
siesta:      0.00000 176.46655   2.33320  1     1053
siesta:      0.00000 179.16070   2.33320  2     1054
siesta:      0.00000 180.50777   4.66640  1     1055
siesta:      0.00000 183.20192   4.66640  2     1056
siesta:      0.00000  91.60096 -51.33037  1     1057
siesta:      0.00000  94.29510 -51.33037  2     1058
siesta:      0.00000  95.64218 -48.99717  1     1059
siesta:      0.00000  98.33632 -48.99717  2     1060
siesta:      0.00000  99.68340 -46.66397  1     1061
siesta:      0.00000 102.37754 -46.66397  2     1062
siesta:      0.00000 103.72461 -44.33078  1     1063
siesta:      0.00000 106.41876 -44.33078  2     1064
siesta:      0.00000 107.76583 -41.99758  1     1065
siesta:      0.00000 110.45998 -41.99758  2     1066
siesta:      0.00000 111.80705 -39.66438  1     1067
siesta:      0.00000 114.50120 -39.66438  2     1068
siesta:      0.00000 115.84827 -37.33118  1     1069
siesta:      0.00000 118.54242 -37.33118  2     1070
siesta:      0.00000 119.88949 -34.99798  1     1071
siesta:      0.00000 122.58363 -34.99798  2     1072
siesta:      0.00000 123.93071 -32.66478  1     1073
siesta:      0.00000 126.62485 -32.66478  2     1074
siesta:      0.00000 127.97193 -30.33158  1     1075
siesta:      0.00000 130.66607 -30.33158  2     1076
siesta:      0.00000 132.01314 -27.99838  1     1077
siesta:      0.00000 134.70729 -27.99838  2     1078
siesta:      0.00000 136.05436 -25.66519  1     1079
siesta:      0.00000 138.74851 -25.66519  2     1080
siesta:      0.00000 140.09558 -23.33199  1     1081
siesta:      0.00000 142.78973 -23.33199  2     1082
siesta:      0.00000 144.13680 -20.99879  1     1083
siesta:      0.00000 146.83095 -20.99879  2     1084
siesta:      0.00000 148.17802 -18.66559  1     1085
siesta:      0.00000 150.87217 -18.66559  2     1086
siesta:      0.00000 152.21924 -16.33239  1     1087
siesta:      0.00000 154.91338 -16.33239  2     1088
siesta:      0.00000 156.26046 -13.99919  1     1089
siesta:      0.00000 158.95460 -13.99919  2     1090
siesta:      0.00000 160.30168 -11.66599  1     1091
siesta:      0.00000 162.99582 -11.66599  2     1092
siesta:      0.00000 164.34289  -9.33279  1     1093
siesta:      0.00000 167.03704  -9.33279  2     1094
siesta:      0.00000 168.38411  -6.99960  1     1095
siesta:      0.00000 171.07826  -6.99960  2     1096
siesta:      0.00000 172.42533  -4.66640  1     1097
siesta:      0.00000 175.11948  -4.66640  2     1098
siesta:      0.00000 176.46655  -2.33320  1     1099
siesta:      0.00000 179.16070  -2.33320  2     1100
siesta:      0.00000 180.50777   0.00000  1     1101
siesta:      0.00000 183.20192   0.00000  2     1102
siesta:      0.00000 184.54899   2.33320  1     1103
siesta:      0.00000 187.24313   2.33320  2     1104
siesta:      0.00000  95.64218 -53.66357  1     1105
siesta:      0.00000  98.33632 -53.66357  2     1106
siesta:      0.00000  99.68340 -51.33037  1     1107
siesta:      0.00000 102.37754 -51.33037  2     1108
siesta:      0.00000 103.72461 -48.99717  1     1109
siesta:      0.00000 106.41876 -48.99717  2     1110
siesta:      0.00000 107.76583 -46.66397  1     1111
siesta:      0.00000 110.45998 -46.66397  2     1112
siesta:      0.00000 111.80705 -44.33078  1     1113
siesta:      0.00000 114.50120 -44.33078  2     1114
siesta:      0.00000 115.84827 -41.99758  1     1115
siesta:      0.00000 118.54242 -41.99758  2     1116
siesta:      0.00000 119.88949 -39.66438  1     1117
siesta:      0.00000 122.58363 -39.66438  2     1118
siesta:      0.00000 123.93071 -37.33118  1     1119
siesta:      0.00000 126.62485 -37.33118  2     1120
siesta:      0.00000 127.97193 -34.99798  1     1121
siesta:      0.00000 130.66607 -34.99798  2     1122
siesta:      0.00000 132.01314 -32.66478  1     1123
siesta:      0.00000 134.70729 -32.66478  2     1124
siesta:      0.00000 136.05436 -30.33158  1     1125
siesta:      0.00000 138.74851 -30.33158  2     1126
siesta:      0.00000 140.09558 -27.99838  1     1127
siesta:      0.00000 142.78973 -27.99838  2     1128
siesta:      0.00000 144.13680 -25.66519  1     1129
siesta:      0.00000 146.83095 -25.66519  2     1130
siesta:      0.00000 148.17802 -23.33199  1     1131
siesta:      0.00000 150.87217 -23.33199  2     1132
siesta:      0.00000 152.21924 -20.99879  1     1133
siesta:      0.00000 154.91338 -20.99879  2     1134
siesta:      0.00000 156.26046 -18.66559  1     1135
siesta:      0.00000 158.95460 -18.66559  2     1136
siesta:      0.00000 160.30168 -16.33239  1     1137
siesta:      0.00000 162.99582 -16.33239  2     1138
siesta:      0.00000 164.34289 -13.99919  1     1139
siesta:      0.00000 167.03704 -13.99919  2     1140
siesta:      0.00000 168.38411 -11.66599  1     1141
siesta:      0.00000 171.07826 -11.66599  2     1142
siesta:      0.00000 172.42533  -9.33279  1     1143
siesta:      0.00000 175.11948  -9.33279  2     1144
siesta:      0.00000 176.46655  -6.99960  1     1145
siesta:      0.00000 179.16070  -6.99960  2     1146
siesta:      0.00000 180.50777  -4.66640  1     1147
siesta:      0.00000 183.20192  -4.66640  2     1148
siesta:      0.00000 184.54899  -2.33320  1     1149
siesta:      0.00000 187.24313  -2.33320  2     1150
siesta:      0.00000 188.59021   0.00000  1     1151
siesta:      0.00000 191.28435   0.00000  2     1152

siesta: System type = slab      

initatomlists: Number of atoms, orbitals, and projectors:   1152 14976 18432

siesta: ******************** Simulation parameters ****************************
siesta:
siesta: The following are some of the parameters of the simulation.
siesta: A complete list of the parameters used, including default values,
siesta: can be found in file out.fdf
siesta:
redata: Non-Collinear-spin run           =     F
redata: SpinPolarized (Up/Down) run      =     F
redata: Number of spin components        =     1
redata: Long output                      =     F
redata: Number of Atomic Species         =        2
redata: Charge density info will appear in .RHO file
redata: Write Mulliken Pop.              =     NO
redata: Mesh Cutoff                      =   100.0000  Ry
redata: Net charge of the system         =     0.0000 |e|
redata: Min. number of SCF Iter          =        0
redata: Max. number of SCF Iter          =       50
redata: Mix DM or H after convergence    =     F
redata: Recompute H after scf cycle      =     F
redata: Performing Pulay mixing using    =     3 iterations
redata: Mix DM in first SCF step ?       =     F
redata: Write Pulay info on disk?        =     F
redata: Discard 1st Pulay DM after  kick =     F
redata: New DM Mixing Weight             =     0.3000
redata: New DM Occupancy tolerance       = 0.000000000001
redata: No kicks to SCF
redata: DM Mixing Weight for Kicks       =     0.5000
redata: DM Tolerance for SCF             =     0.000100
redata: Require (free) Energy convergence in SCF =     F
redata: DM (free)Energy tolerance for SCF =     0.000010 eV
redata: Require Harris convergence for SCF =     F
redata: DM Harris energy tolerance for SCF =     0.000010 eV
redata: Using Saved Data (generic)   =     F
redata: Use continuation files for DM    =     F
redata: Neglect nonoverlap interactions  =     F
redata: Method of Calculation            =     Diagonalization
redata: Divide and Conquer               =     T
redata: Electronic Temperature           =     0.0019  Ry
redata: Fix the spin of the system       =     F
redata: Dynamics option                  =     Single-point calculation
redata: ***********************************************************************
Total number of electrons:  4608.000000
Total ionic charge:  4608.000000

* ProcessorY, Blocksize:   32  13


* Orbital distribution balance (max,min):    13    13

 Kpoints in:  1 . Kpoints trimmed:  1

siesta: k-grid: Number of k-points =     1
siesta: k-grid: Cutoff (effective) =    10.000 Ang
siesta: k-grid: Supercell and displacements
siesta: k-grid:    1   0   0      0.000
siesta: k-grid:    0   1   0      0.000
siesta: k-grid:    0   0   1      0.000

                     ====================================
                        Single-point calculation
                     ====================================

outcell: Unit cell vectors (Ang):
       20.000000    0.000000    0.000000
        0.000000   51.324480   29.632202
        0.000000   51.324480  -29.632202

outcell: Cell vector modules (Ang)   :   20.000000   59.264405   59.264405
outcell: Cell angles (23,13,12) (deg):     60.0000     90.0000     90.0000
outcell: Cell volume (Ang**3)        :  60834.2951
New_DM. Step:     1
Initializing Density Matrix...
New grid distribution:   1
           1       1:   64    1:    5    1:    5
           2       1:   64    1:    5    6:   10
           3       1:   64    1:    5   11:   15
           4       1:   64    1:    5   16:   20
           5       1:   64    1:    5   21:   25
           6       1:   64    1:    5   26:   30
[...]
siesta:    982    0.000000    0.006961   -0.012057
siesta:    983    0.000000   -0.599107    0.000000
siesta:    984    0.000000   -0.005858    0.000000
siesta:    985    0.000000   -0.076451    0.132417
siesta:    986    0.000000    0.002928    0.005073
siesta:    987    0.000000    0.299553    0.518842
siesta:    988    0.000000    0.006961   -0.012057
siesta:    989    0.000000   -0.599107    0.000000
siesta:    990    0.000000   -0.005858    0.000000
siesta:    991    0.000000   -0.076451    0.132417
siesta:    992    0.000000    0.002928    0.005073
siesta:    993    0.000000    0.299553    0.518842
siesta:    994    0.000000    0.006961   -0.012057
siesta:    995    0.000000   -0.599107    0.000000
siesta:    996    0.000000   -0.005858    0.000000
siesta:    997    0.000000   -0.076451    0.132417
siesta:    998    0.000000    0.002928    0.005073
siesta:    999    0.000000    0.299553    0.518842
siesta:   1000    0.000000    0.006961   -0.012057
siesta:   1001    0.000000   -0.599107    0.000000
siesta:   1002    0.000000   -0.005858    0.000000
siesta:   1003    0.000000   -0.076451    0.132417
siesta:   1004    0.000000    0.002928    0.005073
siesta:   1005    0.000000    0.299553    0.518842
siesta:   1006    0.000000    0.006961   -0.012057
siesta:   1007    0.000000   -0.599107    0.000000
siesta:   1008    0.000000   -0.005858    0.000000
siesta:   1009    0.000000    0.152903    0.000000
siesta:   1010    0.000000    0.017250    0.000000
siesta:   1011    0.000000   -0.334545    0.579447
siesta:   1012    0.000000   -0.008624   -0.014939
siesta:   1013    0.000000   -0.076451   -0.132417
siesta:   1014    0.000000    0.002928   -0.005073
siesta:   1015    0.000000    0.152903    0.000000
siesta:   1016    0.000000    0.017250    0.000000
siesta:   1017    0.000000   -0.334545    0.579447
siesta:   1018    0.000000   -0.008625   -0.014939
siesta:   1019    0.000000   -0.076451   -0.132417
siesta:   1020    0.000000    0.002928   -0.005073
siesta:   1021    0.000000    0.152903    0.000000
siesta:   1022    0.000000    0.017250    0.000000
siesta:   1023    0.000000   -0.334545    0.579447
siesta:   1024    0.000000   -0.008624   -0.014939
siesta:   1025    0.000000   -0.076451   -0.132417
siesta:   1026    0.000000    0.002928   -0.005073
siesta:   1027    0.000000    0.152903    0.000000
siesta:   1028    0.000000    0.017250    0.000000
siesta:   1029    0.000000   -0.334545    0.579447
siesta:   1030    0.000000   -0.008625   -0.014939
siesta:   1031    0.000000   -0.076451   -0.132417
siesta:   1032    0.000000    0.002928   -0.005073
siesta:   1033    0.000000    0.152903    0.000000
siesta:   1034    0.000000    0.017250    0.000000
siesta:   1035    0.000000   -0.334545    0.579447
siesta:   1036    0.000000   -0.008624   -0.014939
siesta:   1037    0.000000   -0.076451   -0.132417
siesta:   1038    0.000000    0.002928   -0.005073
siesta:   1039    0.000000    0.152903    0.000000
siesta:   1040    0.000000    0.017250    0.000000
siesta:   1041    0.000000   -0.334545    0.579447
siesta:   1042    0.000000   -0.008625   -0.014939
siesta:   1043    0.000000   -0.076451   -0.132417
siesta:   1044    0.000000    0.002928   -0.005073
siesta:   1045    0.000000    0.152903    0.000000
siesta:   1046    0.000000    0.017250    0.000000
siesta:   1047    0.000000   -0.334545    0.579447
siesta:   1048    0.000000   -0.008624   -0.014939
siesta:   1049    0.000000   -0.076451   -0.132417
siesta:   1050    0.000000    0.002928   -0.005073
siesta:   1051    0.000000    0.152903    0.000000
siesta:   1052    0.000000    0.017250    0.000000
siesta:   1053    0.000000   -0.334545    0.579447
siesta:   1054    0.000000   -0.008625   -0.014939
siesta:   1055    0.000000   -0.076451   -0.132417
siesta:   1056    0.000000    0.002928   -0.005073
siesta:   1057    0.000000   -0.334545   -0.579447
siesta:   1058    0.000000   -0.008624    0.014939
siesta:   1059    0.000000    0.669088    0.000000
siesta:   1060    0.000000   -0.013922    0.000000
siesta:   1061    0.000000    0.299553   -0.518842
siesta:   1062    0.000000    0.006961    0.012057
siesta:   1063    0.000000   -0.334545   -0.579447
siesta:   1064    0.000000   -0.008625    0.014939
siesta:   1065    0.000000    0.669088    0.000000
siesta:   1066    0.000000   -0.013922    0.000000
siesta:   1067    0.000000    0.299553   -0.518842
siesta:   1068    0.000000    0.006961    0.012057
siesta:   1069    0.000000   -0.334545   -0.579447
siesta:   1070    0.000000   -0.008624    0.014939
siesta:   1071    0.000000    0.669088    0.000000
siesta:   1072    0.000000   -0.013922    0.000000
siesta:   1073    0.000000    0.299553   -0.518842
siesta:   1074    0.000000    0.006961    0.012057
siesta:   1075    0.000000   -0.334545   -0.579447
siesta:   1076    0.000000   -0.008625    0.014939
siesta:   1077    0.000000    0.669088    0.000000
siesta:   1078    0.000000   -0.013922    0.000000
siesta:   1079    0.000000    0.299553   -0.518842
siesta:   1080    0.000000    0.006961    0.012057
siesta:   1081    0.000000   -0.334545   -0.579447
siesta:   1082    0.000000   -0.008624    0.014939
siesta:   1083    0.000000    0.669088    0.000000
siesta:   1084    0.000000   -0.013922    0.000000
siesta:   1085    0.000000    0.299553   -0.518842
siesta:   1086    0.000000    0.006961    0.012057
siesta:   1087    0.000000   -0.334545   -0.579447
siesta:   1088    0.000000   -0.008625    0.014939
siesta:   1089    0.000000    0.669088    0.000000
siesta:   1090    0.000000   -0.013922    0.000000
siesta:   1091    0.000000    0.299553   -0.518842
siesta:   1092    0.000000    0.006961    0.012057
siesta:   1093    0.000000   -0.334545   -0.579447
siesta:   1094    0.000000   -0.008624    0.014939
siesta:   1095    0.000000    0.669088    0.000000
siesta:   1096    0.000000   -0.013922    0.000000
siesta:   1097    0.000000    0.299553   -0.518842
siesta:   1098    0.000000    0.006961    0.012057
siesta:   1099    0.000000   -0.334545   -0.579447
siesta:   1100    0.000000   -0.008625    0.014939
siesta:   1101    0.000000    0.669088    0.000000
siesta:   1102    0.000000   -0.013922    0.000000
siesta:   1103    0.000000    0.299553   -0.518842
siesta:   1104    0.000000    0.006961    0.012057
siesta:   1105    0.000000   -0.076451    0.132417
siesta:   1106    0.000000    0.002928    0.005073
siesta:   1107    0.000000    0.299553    0.518842
siesta:   1108    0.000000    0.006961   -0.012057
siesta:   1109    0.000000   -0.599107    0.000000
siesta:   1110    0.000000   -0.005858    0.000000
siesta:   1111    0.000000   -0.076451    0.132417
siesta:   1112    0.000000    0.002928    0.005073
siesta:   1113    0.000000    0.299553    0.518842
siesta:   1114    0.000000    0.006961   -0.012057
siesta:   1115    0.000000   -0.599107    0.000000
siesta:   1116    0.000000   -0.005858    0.000000
siesta:   1117    0.000000   -0.076451    0.132417
siesta:   1118    0.000000    0.002928    0.005072
siesta:   1119    0.000000    0.299553    0.518842
siesta:   1120    0.000000    0.006961   -0.012057
siesta:   1121    0.000000   -0.599107    0.000000
siesta:   1122    0.000000   -0.005858    0.000000
siesta:   1123    0.000000   -0.076451    0.132417
siesta:   1124    0.000000    0.002928    0.005073
siesta:   1125    0.000000    0.299553    0.518842
siesta:   1126    0.000000    0.006961   -0.012057
siesta:   1127    0.000000   -0.599107    0.000000
siesta:   1128    0.000000   -0.005858    0.000000
siesta:   1129    0.000000   -0.076451    0.132417
siesta:   1130    0.000000    0.002928    0.005073
siesta:   1131    0.000000    0.299553    0.518842
siesta:   1132    0.000000    0.006961   -0.012057
siesta:   1133    0.000000   -0.599107    0.000000
siesta:   1134    0.000000   -0.005858    0.000000
siesta:   1135    0.000000   -0.076451    0.132417
siesta:   1136    0.000000    0.002928    0.005073
siesta:   1137    0.000000    0.299553    0.518842
siesta:   1138    0.000000    0.006961   -0.012057
siesta:   1139    0.000000   -0.599107    0.000000
siesta:   1140    0.000000   -0.005858    0.000000
siesta:   1141    0.000000   -0.076451    0.132417
siesta:   1142    0.000000    0.002928    0.005072
siesta:   1143    0.000000    0.299553    0.518842
siesta:   1144    0.000000    0.006961   -0.012057
siesta:   1145    0.000000   -0.599107    0.000000
siesta:   1146    0.000000   -0.005858    0.000000
siesta:   1147    0.000000   -0.076451    0.132417
siesta:   1148    0.000000    0.002928    0.005073
siesta:   1149    0.000000    0.299553    0.518842
siesta:   1150    0.000000    0.006961   -0.012057
siesta:   1151    0.000000   -0.599107    0.000000
siesta:   1152    0.000000   -0.005858    0.000000
siesta: ----------------------------------------
siesta:    Tot   -0.000010   -0.000140    0.000000

siesta: Stress tensor (static) (eV/Ang**3):
siesta:     0.000188    0.000000    0.000000
siesta:     0.000000   -0.007843    0.000000
siesta:     0.000000    0.000000   -0.007843

siesta: Cell volume =      60834.295062 Ang**3

siesta: Pressure (static):
siesta:                Solid            Molecule  Units
siesta:           0.00005626          0.00006036  Ry/Bohr**3
siesta:           0.00516582          0.00554209  eV/Ang**3
siesta:           8.27664908          8.87950301  kBar
(Free)E+ p_basis*V_orbitals  =     -204981.166238
(Free)Eharris+ p_basis*V_orbitals  =     -204981.166269

siesta: Electric dipole (a.u.)  =    0.000000    0.000000    0.000000
siesta: Electric dipole (Debye) =    0.000001    0.000000    0.000000
>> End of run:   8-DEC-2016  18:34:48
************************************************************************************************************************
***             WIDEN YOUR WINDOW TO 120 CHARACTERS.  Use 'enscript -r -fCourier9' to print this document            ***
************************************************************************************************************************

---------------------------------------------- PETSc Performance Summary: ----------------------------------------------

/home/keceli/scratch2/siesta-qetsc/Obj/siesta on a arch-xl named Q02-I7-J04.vesta.itd with 1152 processors, by Unknown Thu Dec  8 18:34:48 2016
Using Petsc Development GIT revision: v3.7.3-1204-g68f0caa  GIT Date: 2016-08-19 16:41:02 -0500

                         Max       Max/Min        Avg      Total 
Time (sec):           2.102e+03      1.00000   2.102e+03
Objects:              1.000e+00      1.00000   1.000e+00
Flops:                0.000e+00      0.00000   0.000e+00  0.000e+00
Flops/sec:            0.000e+00      0.00000   0.000e+00  0.000e+00
MPI Messages:         0.000e+00      0.00000   0.000e+00  0.000e+00
MPI Message Lengths:  0.000e+00      0.00000   0.000e+00  0.000e+00
MPI Reductions:       1.000e+00      1.00000

Flop counting convention: 1 flop = 1 real number operation of type (multiply/divide/add/subtract)
                            e.g., VecAXPY() for real vectors of length N --> 2N flops
                            and VecAXPY() for complex vectors of length N --> 8N flops

Summary of Stages:   ----- Time ------  ----- Flops -----  --- Messages ---  -- Message Lengths --  -- Reductions --
                        Avg     %Total     Avg     %Total   counts   %Total     Avg         %Total   counts   %Total 
 0:      Main Stage: 2.0579e-04   0.0%  0.0000e+00   0.0%  0.000e+00   0.0%  0.000e+00        0.0%  0.000e+00   0.0% 
 1:     siesta_init: 3.0993e+00   0.1%  0.0000e+00   0.0%  0.000e+00   0.0%  0.000e+00        0.0%  0.000e+00   0.0% 
 2:   siesta_forces: 5.1948e+01   2.5%  0.0000e+00   0.0%  0.000e+00   0.0%  0.000e+00        0.0%  0.000e+00   0.0% 
 3:    siesta_solve: 2.0145e+03  95.8%  0.0000e+00   0.0%  0.000e+00   0.0%  0.000e+00        0.0%  0.000e+00   0.0% 
10:     siesta_misc: 1.2569e+01   0.6%  0.0000e+00   0.0%  0.000e+00   0.0%  0.000e+00        0.0%  0.000e+00   0.0% 
11:     qetsc_clean: 7.8845e-06   0.0%  0.0000e+00   0.0%  0.000e+00   0.0%  0.000e+00        0.0%  0.000e+00   0.0% 
12:     siesta_move: 9.1666e-05   0.0%  0.0000e+00   0.0%  0.000e+00   0.0%  0.000e+00        0.0%  0.000e+00   0.0% 
13: siesta_analysis: 5.9316e-03   0.0%  0.0000e+00   0.0%  0.000e+00   0.0%  0.000e+00        0.0%  0.000e+00   0.0% 
14:      siesta_end: 2.0249e+01   1.0%  0.0000e+00   0.0%  0.000e+00   0.0%  0.000e+00        0.0%  0.000e+00   0.0% 

------------------------------------------------------------------------------------------------------------------------
See the 'Profiling' chapter of the users' manual for details on interpreting output.
Phase summary info:
   Count: number of times phase was executed
   Time and Flops: Max - maximum over all processors
                   Ratio - ratio of maximum to minimum over all processors
   Mess: number of messages sent
   Avg. len: average message length (bytes)
   Reduct: number of global reductions
   Global: entire computation
   Stage: stages of a computation. Set stages with PetscLogStagePush() and PetscLogStagePop().
      %T - percent time in this phase         %F - percent flops in this phase
      %M - percent messages in this phase     %L - percent message lengths in this phase
      %R - percent reductions in this phase
   Total Mflop/s: 10e-6 * (sum of flops over all processors)/(max time over all processors)
------------------------------------------------------------------------------------------------------------------------
Event                Count      Time (sec)     Flops                             --- Global ---  --- Stage ---   Total
                   Max Ratio  Max     Ratio   Max  Ratio  Mess   Avg len Reduct  %T %F %M %L %R  %T %F %M %L %R Mflop/s
------------------------------------------------------------------------------------------------------------------------

--- Event Stage 0: Main Stage


--- Event Stage 1: siesta_init


--- Event Stage 2: siesta_forces


--- Event Stage 3: siesta_solve


--- Event Stage 4: Unknown


--- Event Stage 5: Unknown


--- Event Stage 6: Unknown


--- Event Stage 7: Unknown


--- Event Stage 8: Unknown


--- Event Stage 9: Unknown


--- Event Stage 10: siesta_misc


--- Event Stage 11: qetsc_clean


--- Event Stage 12: siesta_move


--- Event Stage 13: siesta_analysis


--- Event Stage 14: siesta_end

------------------------------------------------------------------------------------------------------------------------

Memory usage is given in bytes:

Object Type          Creations   Destructions     Memory  Descendants' Mem.
Reports information only for process 0.

--- Event Stage 0: Main Stage


--- Event Stage 1: siesta_init


--- Event Stage 2: siesta_forces


--- Event Stage 3: siesta_solve


--- Event Stage 4: Unknown


--- Event Stage 5: Unknown


--- Event Stage 6: Unknown


--- Event Stage 7: Unknown


--- Event Stage 8: Unknown


--- Event Stage 9: Unknown


--- Event Stage 10: siesta_misc


--- Event Stage 11: qetsc_clean


--- Event Stage 12: siesta_move


--- Event Stage 13: siesta_analysis


--- Event Stage 14: siesta_end

              Viewer     1              0            0     0.
========================================================================================================================
Average time to get PetscTime(): 1.24e-07
Average time for MPI_Barrier(): 3.44863e-06
Average time for zero size MPI_Send(): 1.07226e-05
#PETSc Option Table entries:
-eps_interval -2.3,0.
-eps_krylovschur_detect_zeros 0
-eps_krylovschur_partitions 1
-eps_purify 0
-ioptbin 7
-ioptdensity 0
-ioptinertia 1
-ioptleft 2
-log_view
-mat_mumps_icntl_23 0
-mat_mumps_icntl_7 5
-mat_type mpisbaij
-roptbuffer 0.01
-roptdiff 0.02
-roptleft -2.3
-roptright 0.
-writeeigs 1
#End of PETSc Option Table entries
Compiled with FORTRAN kernels
Compiled with full precision matrices (default)
sizeof(short) 2 sizeof(int) 4 sizeof(long) 8 sizeof(void*) 8 sizeof(PetscScalar) 8 sizeof(PetscInt) 4
Configure options: --known-has-attribute-aligned=1 --download-chaco=0 --download-cmake=0 --download-hypre=0 --download-metis=1 --download-mumps=1 --download-parmetis=1 --download-plapack=0 --download-prometheus=0 --download-ptscotch=1 --download-spai=0 --download-spooles=0 --download-superlu=0 --download-superlu_dist=0 --download-triangle=0 --known-bits-per-byte=8 --known-level1-dcache-assoc=0 --known-level1-dcache-linesize=32 --known-level1-dcache-size=32768 --known-memcmp-ok=1 --known-mpi-c-double-complex=1 --known-mpi-int64_t=1 --known-mpi-long-double=1 --known-mpi-shared-libraries=0 --known-sdot-returns-double=0 --known-sizeof-MPI_Comm=4 --known-sizeof-MPI_Fint=4 --known-sizeof-char=1 --known-sizeof-double=8 --known-sizeof-float=4 --known-sizeof-int=4 --known-sizeof-long-long=8 --known-sizeof-long=8 --known-sizeof-short=2 --known-sizeof-size_t=8 --known-sizeof-void-p=8 --known-snrm2-returns-double=0 --with-batch=1 --with-blacs-include=/soft/libraries/alcf/current/xl/SCALAPACK/ --with-blacs-lib=/soft/libraries/alcf/current/xl/SCALAPACK/lib/libscalapack.a --with-blas-lapack-lib="-L/soft/libraries/alcf/current/xl/LAPACK/lib -llapack -L/soft/libraries/alcf/current/xl/BLAS/lib -lblas" --with-cc=mpixlc_r --with-clib-autodetect=0 --with-cxx=mpixlcxx_r --with-cxxlib-autodetect=0 --with-debugging=0 --with-fc="mpixlf77_r -qnosave" --with-fortran-kernels=1 --with-fortranlib-autodetect=0 --with-is-color-value-type=short --with-scalapack-include=/soft/libraries/alcf/current/xl/SCALAPACK/ --with-scalapack-lib=/soft/libraries/alcf/current/xl/SCALAPACK/lib/libscalapack.a --with-shared-libraries=0 --with-x=0 -COPTFLAGS=" -g -O3 -qhot=level=0 -qsimd=auto -qmaxmem=-1 -qstrict -qstrict_induction" -CXXOPTFLAGS="  -g -O3 -qhot=level=0 -qsimd=auto -qmaxmem=-1 -qstrict -qstrict_induction" -FOPTFLAGS=" -g -O3 -qhot=level=0 -qsimd=auto -qmaxmem=-1 -qstrict -qstrict_induction" LIBS="-lmpichcxx-gcc -lmpichf77-gcc -L/soft/compilers/ibmcmp-feb2015/vacpp/bg/12.1/bglib64 -libmc++ -L/soft/compilers/ibmcmp-feb2015/xlf/bg/14.1/bglib64 -lxlf90_r -lxlomp_ser -lxlfmath" PETSC_ARCH=arch-xl
-----------------------------------------
Libraries compiled on Sat Aug 20 04:19:47 2016 on vestalac2 
Machine characteristics: Linux-2.6.32-573.18.1.el6.ppc64-ppc64-with-redhat-6.7-Santiago
Using PETSc directory: /home/keceli/scratch2/petsc
Using PETSc arch: arch-xl
-----------------------------------------

Using C compiler: mpixlc_r   -g -O3 -qhot=level=0 -qsimd=auto -qmaxmem=-1 -qstrict -qstrict_induction  ${COPTFLAGS} ${CFLAGS}
Using Fortran compiler: mpixlf77_r -qnosave  -g -O3 -qhot=level=0 -qsimd=auto -qmaxmem=-1 -qstrict -qstrict_induction   ${FOPTFLAGS} ${FFLAGS} 
-----------------------------------------

Using include paths: -I/home/keceli/scratch2/petsc/arch-xl/include -I/home/keceli/scratch2/petsc/include -I/home/keceli/scratch2/petsc/include -I/home/keceli/scratch2/petsc/arch-xl/include -I/bgsys/drivers/V1R2M4/ppc64/comm/include -I/bgsys/drivers/V1R2M4/ppc64/comm/lib/xl -I/bgsys/drivers/V1R2M4/ppc64 -I/bgsys/drivers/V1R2M4/ppc64/comm/sys/include -I/bgsys/drivers/V1R2M4/ppc64/spi/include -I/bgsys/drivers/V1R2M4/ppc64/spi/include/kernel/cnk
-----------------------------------------

Using C linker: mpixlc_r
Using Fortran linker: mpixlf77_r -qnosave
Using libraries: -Wl,-rpath,/home/keceli/scratch2/petsc/arch-xl/lib -L/home/keceli/scratch2/petsc/arch-xl/lib -lpetsc -Wl,-rpath,/home/keceli/scratch2/petsc/arch-xl/lib -L/home/keceli/scratch2/petsc/arch-xl/lib -lcmumps -ldmumps -lsmumps -lzmumps -lmumps_common -lpord -Wl,-rpath,/soft/libraries/alcf/current/xl/SCALAPACK/lib -L/soft/libraries/alcf/current/xl/SCALAPACK/lib -lscalapack -L/soft/libraries/alcf/current/xl/LAPACK/lib -llapack -L/soft/libraries/alcf/current/xl/BLAS/lib -lblas -lparmetis -lmetis -lptesmumps -lptscotch -lptscotcherr -lscotch -lscotcherr -lrt -lm -lpthread -ldl -lmpichcxx-gcc -lmpichf77-gcc -L/soft/compilers/ibmcmp-feb2015/vacpp/bg/12.1/bglib64 -libmc++ -L/soft/compilers/ibmcmp-feb2015/xlf/bg/14.1/bglib64 -lxlf90_r -lxlomp_ser -lxlfmath
-----------------------------------------

