s.subSiesta: Submission time = 53s22m04h
s.subSiesta: Job name = qb16cg_s16_n16_c16_vesta
s.subSiesta: Number of nodes = 16
s.subSiesta: Number of cores = 256
s.subSiesta: Number of cores/node = 16
s.subSiesta: Number of slices = 16
s.subSiesta: Mapping = ABCDET
53s22m04h
#QETSc options
-ioptbin 7
-ioptdensity 0
-ioptinertia 1
-ioptleft 2
-ioptwrite 1
#-roptbuffer 0.01
#-roptdiff 0.

#PETSc options
-mat_type mpisbaij
-log_view
#-mat_view
#-memory_view
#-mat_mumps_icntl_13 1 #turn off scaLAPACK for matrix inertia
#-mat_mumps_icntl_24 1 #null pivot row detection for matrix inertia
-mat_mumps_icntl_23 0
#-mat_mumps_icntl_28 1 # serial analysis
#-mat_mumps_icntl_28 2 #parallel analysis
#-mat_mumps_icntl_29 1 #ptscotch
#-mat_mumps_icntl_29 2 #parmetis
-mat_mumps_icntl_7 5 #metis
#-malloc_info 
#-mat_view ::ascii_info 
#-mat_getrow_uppertriangular 1
#-st_type sinvert 
#-st_ksp_type preonly 
#-st_pc_type cholesky 
#-st_pc_factor_mat_solver_package mumps 

#SLEPc options

#-eps_krylovschur_partitions 1  
-eps_interval -2.3,0.
#-eps_tol  1.e-8
-eps_krylovschur_detect_zeros 0
#-eps_purify 0
SystemName          BN
SystemLabel         BN
NumberOfAtoms       2
NumberOfSpecies     2

SolutionMethod  qetsc
DM.MixingWeight 0.3
DM.NumberPulay 3
WriteDM .false.
WriteDM.NetCDF .false.
WriteDMHS.NetCDF .false.
LongOutput .false.

MD.TypeOfRun         cg
MD.NumCGsteps        50
MD.MaxCGDispl         0.1  Ang
MD.MaxForceTol        0.01 eV/Ang

%block ChemicalSpeciesLabel
 1  5  B
 2  7  N
%endblock ChemicalSpeciesLabel

PAO.BasisType split
PAO.BasisSize DZP

LatticeConstant 1.00 Ang
%block LatticeVectors
20.000000000000000        0.0000000000000000        0.0000000000000000        
0.0000000000000000        2.1385199999999998        1.2346750976673984        
0.0000000000000000        2.1385199999999998       -1.2346750976673984        
%endblock LatticeVectors

%block kgrid_Monkhorst_Pack
1 0 0 0.0
0 1 0 0.0
0 0 1 0.0
%endblock kgrid_Monkhorst_Pack

%block SuperCell
1 0 0
0 16 0
0 0 16
%endblock SuperCell

AtomicCoordinatesFormat Ang
%block AtomicCoordinatesAndAtomicSpecies
 0.0000000000000000 1.4256799999999998 0.0000000000000000 1
 0.0000000000000000 2.8513599999999997 0.0000000000000000 2
%endblock AtomicCoordinatesAndAtomicSpecies
Siesta Version: siesta-trunk-492
Architecture  : powerpc64-unknown-linux-gnu--Xlf
Compiler flags: mpixlf90_r -I/home/keceli/scratch2/petsc/include -I/home/keceli/scratch2/petssc/arch-xl/include -I/bgsys/drivers/V1R2M4/ppc64/comm/include -I/bgsys/drivers/V1R2M4/ppc64/comm/lib/xl -I/bgsys/drivers/V1R2M4/ppc64 -I/bgsys/drivers/V1R2M4/ppc64/comm/sys/include -I/bgsys/drivers/V1R2M4/ppc64/spi/include -I/bgsys/drivers/V1R2M4/ppc64/spi/include/kernel/cnk -I/home/keceli/scratch2/slepcfork/include -I/home/keceli/scratch2/slepcfork/arch-xl/include
PP flags      : -WF,-DMPI -WF,-DFC_HAVE_ABORT -WF,-DBSC_CELLXC -WF,-DMPI_TIMING 
PARALLEL version

* Running on  256 nodes in parallel
>> Start of run:  11-JAN-2017   4:24:01

                           ***********************       
                           *  WELCOME TO SIESTA  *       
                           ***********************       
WARNING: Siesta is reading its input from file INPUT_DEBUG

reinit: -----------------------------------------------------------------------
reinit: System Name: BN
reinit: -----------------------------------------------------------------------
reinit: System Label: BN                                                          
reinit: -----------------------------------------------------------------------

initatom: Reading input for the pseudopotentials and atomic orbitals ----------
Species number:   1 Atomic number:    5 Label: B
Species number:   2 Atomic number:    7 Label: N
 
Ground state valence configuration:   2s02  2p01
Reading pseudopotential information in formatted form from B.psf

Valence configuration for pseudopotential generation:
2s( 2.00) rc: 1.74
2p( 1.00) rc: 1.74
3d( 0.00) rc: 1.74
4f( 0.00) rc: 1.74
Ground state valence configuration:   2s02  2p03
Reading pseudopotential information in formatted form from N.psf

Valence configuration for pseudopotential generation:
2s( 2.00) rc: 1.48
2p( 3.00) rc: 1.48
3d( 0.00) rc: 1.48
4f( 0.00) rc: 1.48
For B, standard SIESTA heuristics set lmxkb to 3
 (one more than the basis l, including polarization orbitals).
Use PS.lmax or PS.KBprojectors blocks to override.
For N, standard SIESTA heuristics set lmxkb to 3
 (one more than the basis l, including polarization orbitals).
Use PS.lmax or PS.KBprojectors blocks to override.

<basis_specs>
===============================================================================
B                    Z=   5    Mass=  10.810        Charge= 0.17977+309
Lmxo=1 Lmxkb= 3    BasisType=split      Semic=F
L=0  Nsemic=0  Cnfigmx=2
          n=1  nzeta=2  polorb=0
            splnorm:   0.15000    
               vcte:    0.0000    
               rinn:    0.0000    
               qcoe:    0.0000    
               qyuk:    0.0000    
               qwid:   0.10000E-01
                rcs:    0.0000      0.0000    
            lambdas:    1.0000      1.0000    
L=1  Nsemic=0  Cnfigmx=2
          n=1  nzeta=2  polorb=1
            splnorm:   0.15000    
               vcte:    0.0000    
               rinn:    0.0000    
               qcoe:    0.0000    
               qyuk:    0.0000    
               qwid:   0.10000E-01
                rcs:    0.0000      0.0000    
            lambdas:    1.0000      1.0000    
-------------------------------------------------------------------------------
L=0  Nkbl=1  erefs: 0.17977+309
L=1  Nkbl=1  erefs: 0.17977+309
L=2  Nkbl=1  erefs: 0.17977+309
L=3  Nkbl=1  erefs: 0.17977+309
===============================================================================
</basis_specs>

atom: Called for B                     (Z =   5)

read_vps: Pseudopotential generation method:
read_vps: ATM3      Troullier-Martins                       
Total valence charge:    3.00000

read_vps: Pseudopotential includes a core correction:
read_vps: Pseudo-core for xc-correction

xc_check: Exchange-correlation functional:
xc_check: Ceperley-Alder
V l=0 = -2*Zval/r beyond r=  1.7165
V l=1 = -2*Zval/r beyond r=  1.7165
V l=2 = -2*Zval/r beyond r=  1.7165
V l=3 = -2*Zval/r beyond r=  1.6951
All V_l potentials equal beyond r=  1.7165
This should be close to max(r_c) in ps generation
All pots = -2*Zval/r beyond r=  1.7165

VLOCAL1: 99.0% of the norm of Vloc inside     14.733 Ry
VLOCAL1: 99.9% of the norm of Vloc inside     33.577 Ry
atom: Maximum radius for 4*pi*r*r*local-pseudopot. charge    2.04484
atom: Maximum radius for r*vlocal+2*Zval:    1.75994
GHOST: No ghost state for L =  0
GHOST: No ghost state for L =  1
GHOST: No ghost state for L =  2
GHOST: No ghost state for L =  3

KBgen: Kleinman-Bylander projectors: 
   l= 0   rc=  1.897051   el= -0.689821   Ekb=  4.267659   kbcos=  0.294941
   l= 1   rc=  1.920920   el= -0.273582   Ekb= -2.493518   kbcos= -0.316494
   l= 2   rc=  2.044840   el=  0.002410   Ekb= -0.642570   kbcos= -0.014732
   l= 3   rc=  2.149707   el=  0.003543   Ekb= -0.260486   kbcos= -0.002341

KBgen: Total number of  Kleinman-Bylander projectors:   16
atom: -------------------------------------------------------------------------

atom: SANKEY-TYPE ORBITALS:
atom: Selected multiple-zeta basis: split     

SPLIT: Orbitals with angular momentum L= 0

SPLIT: Basis orbitals for state 2s

SPLIT: PAO cut-off radius determined from an
SPLIT: energy shift=  0.020000 Ry

   izeta = 1
                 lambda =    1.000000
                     rc =    4.906010
                 energy =   -0.672079
                kinetic =    0.600553
    potential(screened) =   -1.272632
       potential(ionic) =   -3.301886

   izeta = 2
                 rmatch =    4.170113
              splitnorm =    0.150000
                 energy =   -0.581071
                kinetic =    0.883210
    potential(screened) =   -1.464280
       potential(ionic) =   -3.607314

SPLIT: Orbitals with angular momentum L= 1

SPLIT: Basis orbitals for state 2p

SPLIT: PAO cut-off radius determined from an
SPLIT: energy shift=  0.020000 Ry

   izeta = 1
                 lambda =    1.000000
                     rc =    5.700051
                 energy =   -0.254269
                kinetic =    1.609303
    potential(screened) =   -1.863571
       potential(ionic) =   -3.822590

   izeta = 2
                 rmatch =    4.275693
              splitnorm =    0.150000
                 energy =   -0.140145
                kinetic =    2.432023
    potential(screened) =   -2.572168
       potential(ionic) =   -4.719137

POLgen: Perturbative polarization orbital with L=  2

POLgen: Polarization orbital for state 2p

   izeta = 1
                     rc =    5.700051
                 energy =    0.829041
                kinetic =    1.746766
    potential(screened) =   -0.917724
       potential(ionic) =   -2.618902
atom: Total number of Sankey-type orbitals: 13

atm_pop: Valence configuration (for local Pseudopot. screening):
 2s( 2.00)                                                            
 2p( 1.00)                                                            
Vna: chval, zval:    3.00000   3.00000

Vna:  Cut-off radius for the neutral-atom potential:   5.700051
comcore: Pseudo-core radius Rcore=  2.122997

atom: _________________________________________________________________________

<basis_specs>
===============================================================================
N                    Z=   7    Mass=  14.010        Charge= 0.17977+309
Lmxo=1 Lmxkb= 3    BasisType=split      Semic=F
L=0  Nsemic=0  Cnfigmx=2
          n=1  nzeta=2  polorb=0
            splnorm:   0.15000    
               vcte:    0.0000    
               rinn:    0.0000    
               qcoe:    0.0000    
               qyuk:    0.0000    
               qwid:   0.10000E-01
                rcs:    0.0000      0.0000    
            lambdas:    1.0000      1.0000    
L=1  Nsemic=0  Cnfigmx=2
          n=1  nzeta=2  polorb=1
            splnorm:   0.15000    
               vcte:    0.0000    
               rinn:    0.0000    
               qcoe:    0.0000    
               qyuk:    0.0000    
               qwid:   0.10000E-01
                rcs:    0.0000      0.0000    
            lambdas:    1.0000      1.0000    
-------------------------------------------------------------------------------
L=0  Nkbl=1  erefs: 0.17977+309
L=1  Nkbl=1  erefs: 0.17977+309
L=2  Nkbl=1  erefs: 0.17977+309
L=3  Nkbl=1  erefs: 0.17977+309
===============================================================================
</basis_specs>

atom: Called for N                     (Z =   7)

read_vps: Pseudopotential generation method:
read_vps: ATM3      Troullier-Martins                       
Total valence charge:    5.00000

xc_check: Exchange-correlation functional:
xc_check: Ceperley-Alder
V l=0 = -2*Zval/r beyond r=  1.4606
V l=1 = -2*Zval/r beyond r=  1.4606
V l=2 = -2*Zval/r beyond r=  1.4606
V l=3 = -2*Zval/r beyond r=  1.4606
All V_l potentials equal beyond r=  1.4606
This should be close to max(r_c) in ps generation
All pots = -2*Zval/r beyond r=  1.4606

VLOCAL1: 99.0% of the norm of Vloc inside     20.347 Ry
VLOCAL1: 99.9% of the norm of Vloc inside     46.372 Ry
atom: Maximum radius for 4*pi*r*r*local-pseudopot. charge    1.76189
atom: Maximum radius for r*vlocal+2*Zval:    1.53550
GHOST: No ghost state for L =  0
GHOST: No ghost state for L =  1
GHOST: No ghost state for L =  2
GHOST: No ghost state for L =  3

KBgen: Kleinman-Bylander projectors: 
   l= 0   rc=  1.634559   el= -1.352239   Ekb=  4.901185   kbcos=  0.337501
   l= 1   rc=  1.614250   el= -0.532623   Ekb= -5.544141   kbcos= -0.433040
   l= 2   rc=  1.740002   el=  0.002346   Ekb= -1.331777   kbcos= -0.007563
   l= 3   rc=  1.806505   el=  0.003449   Ekb= -0.515466   kbcos= -0.000994

KBgen: Total number of  Kleinman-Bylander projectors:   16
atom: -------------------------------------------------------------------------

atom: SANKEY-TYPE ORBITALS:
atom: Selected multiple-zeta basis: split     

SPLIT: Orbitals with angular momentum L= 0

SPLIT: Basis orbitals for state 2s

SPLIT: PAO cut-off radius determined from an
SPLIT: energy shift=  0.020000 Ry

   izeta = 1
                 lambda =    1.000000
                     rc =    3.683980
                 energy =   -1.333780
                kinetic =    1.203249
    potential(screened) =   -2.537029
       potential(ionic) =   -8.126274

   izeta = 2
                 rmatch =    2.905100
              splitnorm =    0.150000
                 energy =   -1.138702
                kinetic =    1.810192
    potential(screened) =   -2.948894
       potential(ionic) =   -8.945013

SPLIT: Orbitals with angular momentum L= 1

SPLIT: Basis orbitals for state 2p

SPLIT: PAO cut-off radius determined from an
SPLIT: energy shift=  0.020000 Ry

   izeta = 1
                 lambda =    1.000000
                     rc =    4.280232
                 energy =   -0.512466
                kinetic =    3.598849
    potential(screened) =   -4.111315
       potential(ionic) =   -9.550563

   izeta = 2
                 rmatch =    2.941647
              splitnorm =    0.150000
                 energy =   -0.292244
                kinetic =    5.357522
    potential(screened) =   -5.649767
       potential(ionic) =  -11.693436

POLgen: Perturbative polarization orbital with L=  2

POLgen: Polarization orbital for state 2p

   izeta = 1
                     rc =    4.280232
                 energy =    1.826084
                kinetic =    3.687342
    potential(screened) =   -1.861257
       potential(ionic) =   -6.363951
atom: Total number of Sankey-type orbitals: 13

atm_pop: Valence configuration (for local Pseudopot. screening):
 2s( 2.00)                                                            
 2p( 3.00)                                                            
Vna: chval, zval:    5.00000   5.00000

Vna:  Cut-off radius for the neutral-atom potential:   4.280232

atom: _________________________________________________________________________

prinput: Basis input ----------------------------------------------------------

PAO.BasisType split     

%block ChemicalSpeciesLabel
    1    5 B                       # Species index, atomic number, species label
    2    7 N                       # Species index, atomic number, species label
%endblock ChemicalSpeciesLabel

%block PAO.Basis                 # Define Basis set
B                     2                    # Species label, number of l-shells
 n=2   0   2                         # n, l, Nzeta 
   4.906      4.170   
   1.000      1.000   
 n=2   1   2 P   1                   # n, l, Nzeta, Polarization, NzetaPol
   5.700      4.276   
   1.000      1.000   
N                     2                    # Species label, number of l-shells
 n=2   0   2                         # n, l, Nzeta 
   3.684      2.905   
   1.000      1.000   
 n=2   1   2 P   1                   # n, l, Nzeta, Polarization, NzetaPol
   4.280      2.942   
   1.000      1.000   
%endblock PAO.Basis

prinput: ----------------------------------------------------------------------

coor:   Atomic-coordinates input format  =     Cartesian coordinates
coor:                                          (in Angstroms)

siesta: Atomic coordinates (Bohr) and species
siesta:      0.00000   2.69415   0.00000  1        1
siesta:      0.00000   5.38829   0.00000  2        2
siesta:      0.00000   6.73536   2.33320  1        3
siesta:      0.00000   9.42951   2.33320  2        4
siesta:      0.00000  10.77658   4.66640  1        5
siesta:      0.00000  13.47073   4.66640  2        6
siesta:      0.00000  14.81780   6.99960  1        7
siesta:      0.00000  17.51195   6.99960  2        8
siesta:      0.00000  18.85902   9.33279  1        9
siesta:      0.00000  21.55317   9.33279  2       10
siesta:      0.00000  22.90024  11.66599  1       11
siesta:      0.00000  25.59439  11.66599  2       12
siesta:      0.00000  26.94146  13.99919  1       13
siesta:      0.00000  29.63560  13.99919  2       14
siesta:      0.00000  30.98268  16.33239  1       15
siesta:      0.00000  33.67682  16.33239  2       16
siesta:      0.00000  35.02390  18.66559  1       17
siesta:      0.00000  37.71804  18.66559  2       18
siesta:      0.00000  39.06511  20.99879  1       19
siesta:      0.00000  41.75926  20.99879  2       20
siesta:      0.00000  43.10633  23.33199  1       21
siesta:      0.00000  45.80048  23.33199  2       22
siesta:      0.00000  47.14755  25.66519  1       23
siesta:      0.00000  49.84170  25.66519  2       24
siesta:      0.00000  51.18877  27.99838  1       25
siesta:      0.00000  53.88292  27.99838  2       26
siesta:      0.00000  55.22999  30.33158  1       27
siesta:      0.00000  57.92414  30.33158  2       28
siesta:      0.00000  59.27121  32.66478  1       29
siesta:      0.00000  61.96535  32.66478  2       30
siesta:      0.00000  63.31243  34.99798  1       31
siesta:      0.00000  66.00657  34.99798  2       32
siesta:      0.00000   6.73536  -2.33320  1       33
siesta:      0.00000   9.42951  -2.33320  2       34
siesta:      0.00000  10.77658   0.00000  1       35
siesta:      0.00000  13.47073   0.00000  2       36
siesta:      0.00000  14.81780   2.33320  1       37
siesta:      0.00000  17.51195   2.33320  2       38
siesta:      0.00000  18.85902   4.66640  1       39
siesta:      0.00000  21.55317   4.66640  2       40
siesta:      0.00000  22.90024   6.99960  1       41
siesta:      0.00000  25.59439   6.99960  2       42
siesta:      0.00000  26.94146   9.33279  1       43
siesta:      0.00000  29.63560   9.33279  2       44
siesta:      0.00000  30.98268  11.66599  1       45
siesta:      0.00000  33.67682  11.66599  2       46
siesta:      0.00000  35.02390  13.99919  1       47
siesta:      0.00000  37.71804  13.99919  2       48
siesta:      0.00000  39.06511  16.33239  1       49
siesta:      0.00000  41.75926  16.33239  2       50
siesta:      0.00000  43.10633  18.66559  1       51
siesta:      0.00000  45.80048  18.66559  2       52
siesta:      0.00000  47.14755  20.99879  1       53
siesta:      0.00000  49.84170  20.99879  2       54
siesta:      0.00000  51.18877  23.33199  1       55
siesta:      0.00000  53.88292  23.33199  2       56
siesta:      0.00000  55.22999  25.66519  1       57
siesta:      0.00000  57.92414  25.66519  2       58
siesta:      0.00000  59.27121  27.99838  1       59
siesta:      0.00000  61.96535  27.99838  2       60
siesta:      0.00000  63.31243  30.33158  1       61
siesta:      0.00000  66.00657  30.33158  2       62
siesta:      0.00000  67.35365  32.66478  1       63
siesta:      0.00000  70.04779  32.66478  2       64
siesta:      0.00000  10.77658  -4.66640  1       65
siesta:      0.00000  13.47073  -4.66640  2       66
siesta:      0.00000  14.81780  -2.33320  1       67
siesta:      0.00000  17.51195  -2.33320  2       68
siesta:      0.00000  18.85902   0.00000  1       69
siesta:      0.00000  21.55317   0.00000  2       70
siesta:      0.00000  22.90024   2.33320  1       71
siesta:      0.00000  25.59439   2.33320  2       72
siesta:      0.00000  26.94146   4.66640  1       73
siesta:      0.00000  29.63560   4.66640  2       74
siesta:      0.00000  30.98268   6.99960  1       75
siesta:      0.00000  33.67682   6.99960  2       76
siesta:      0.00000  35.02390   9.33279  1       77
siesta:      0.00000  37.71804   9.33279  2       78
siesta:      0.00000  39.06511  11.66599  1       79
siesta:      0.00000  41.75926  11.66599  2       80
siesta:      0.00000  43.10633  13.99919  1       81
siesta:      0.00000  45.80048  13.99919  2       82
siesta:      0.00000  47.14755  16.33239  1       83
siesta:      0.00000  49.84170  16.33239  2       84
siesta:      0.00000  51.18877  18.66559  1       85
siesta:      0.00000  53.88292  18.66559  2       86
siesta:      0.00000  55.22999  20.99879  1       87
siesta:      0.00000  57.92414  20.99879  2       88
siesta:      0.00000  59.27121  23.33199  1       89
siesta:      0.00000  61.96535  23.33199  2       90
siesta:      0.00000  63.31243  25.66519  1       91
siesta:      0.00000  66.00657  25.66519  2       92
siesta:      0.00000  67.35365  27.99838  1       93
siesta:      0.00000  70.04779  27.99838  2       94
siesta:      0.00000  71.39486  30.33158  1       95
siesta:      0.00000  74.08901  30.33158  2       96
siesta:      0.00000  14.81780  -6.99960  1       97
siesta:      0.00000  17.51195  -6.99960  2       98
siesta:      0.00000  18.85902  -4.66640  1       99
siesta:      0.00000  21.55317  -4.66640  2      100
siesta:      0.00000  22.90024  -2.33320  1      101
siesta:      0.00000  25.59439  -2.33320  2      102
siesta:      0.00000  26.94146   0.00000  1      103
siesta:      0.00000  29.63560   0.00000  2      104
siesta:      0.00000  30.98268   2.33320  1      105
siesta:      0.00000  33.67682   2.33320  2      106
siesta:      0.00000  35.02390   4.66640  1      107
siesta:      0.00000  37.71804   4.66640  2      108
siesta:      0.00000  39.06511   6.99960  1      109
siesta:      0.00000  41.75926   6.99960  2      110
siesta:      0.00000  43.10633   9.33279  1      111
siesta:      0.00000  45.80048   9.33279  2      112
siesta:      0.00000  47.14755  11.66599  1      113
siesta:      0.00000  49.84170  11.66599  2      114
siesta:      0.00000  51.18877  13.99919  1      115
siesta:      0.00000  53.88292  13.99919  2      116
siesta:      0.00000  55.22999  16.33239  1      117
siesta:      0.00000  57.92414  16.33239  2      118
siesta:      0.00000  59.27121  18.66559  1      119
siesta:      0.00000  61.96535  18.66559  2      120
siesta:      0.00000  63.31243  20.99879  1      121
siesta:      0.00000  66.00657  20.99879  2      122
siesta:      0.00000  67.35365  23.33199  1      123
siesta:      0.00000  70.04779  23.33199  2      124
siesta:      0.00000  71.39486  25.66519  1      125
siesta:      0.00000  74.08901  25.66519  2      126
siesta:      0.00000  75.43608  27.99838  1      127
siesta:      0.00000  78.13023  27.99838  2      128
siesta:      0.00000  18.85902  -9.33279  1      129
siesta:      0.00000  21.55317  -9.33279  2      130
siesta:      0.00000  22.90024  -6.99960  1      131
siesta:      0.00000  25.59439  -6.99960  2      132
siesta:      0.00000  26.94146  -4.66640  1      133
siesta:      0.00000  29.63560  -4.66640  2      134
siesta:      0.00000  30.98268  -2.33320  1      135
siesta:      0.00000  33.67682  -2.33320  2      136
siesta:      0.00000  35.02390   0.00000  1      137
siesta:      0.00000  37.71804   0.00000  2      138
siesta:      0.00000  39.06511   2.33320  1      139
siesta:      0.00000  41.75926   2.33320  2      140
siesta:      0.00000  43.10633   4.66640  1      141
siesta:      0.00000  45.80048   4.66640  2      142
siesta:      0.00000  47.14755   6.99960  1      143
siesta:      0.00000  49.84170   6.99960  2      144
siesta:      0.00000  51.18877   9.33279  1      145
siesta:      0.00000  53.88292   9.33279  2      146
siesta:      0.00000  55.22999  11.66599  1      147
siesta:      0.00000  57.92414  11.66599  2      148
siesta:      0.00000  59.27121  13.99919  1      149
siesta:      0.00000  61.96535  13.99919  2      150
siesta:      0.00000  63.31243  16.33239  1      151
siesta:      0.00000  66.00657  16.33239  2      152
siesta:      0.00000  67.35365  18.66559  1      153
siesta:      0.00000  70.04779  18.66559  2      154
siesta:      0.00000  71.39486  20.99879  1      155
siesta:      0.00000  74.08901  20.99879  2      156
siesta:      0.00000  75.43608  23.33199  1      157
siesta:      0.00000  78.13023  23.33199  2      158
siesta:      0.00000  79.47730  25.66519  1      159
siesta:      0.00000  82.17145  25.66519  2      160
siesta:      0.00000  22.90024 -11.66599  1      161
siesta:      0.00000  25.59439 -11.66599  2      162
siesta:      0.00000  26.94146  -9.33279  1      163
siesta:      0.00000  29.63560  -9.33279  2      164
siesta:      0.00000  30.98268  -6.99960  1      165
siesta:      0.00000  33.67682  -6.99960  2      166
siesta:      0.00000  35.02390  -4.66640  1      167
siesta:      0.00000  37.71804  -4.66640  2      168
siesta:      0.00000  39.06511  -2.33320  1      169
siesta:      0.00000  41.75926  -2.33320  2      170
siesta:      0.00000  43.10633   0.00000  1      171
siesta:      0.00000  45.80048   0.00000  2      172
siesta:      0.00000  47.14755   2.33320  1      173
siesta:      0.00000  49.84170   2.33320  2      174
siesta:      0.00000  51.18877   4.66640  1      175
siesta:      0.00000  53.88292   4.66640  2      176
siesta:      0.00000  55.22999   6.99960  1      177
siesta:      0.00000  57.92414   6.99960  2      178
siesta:      0.00000  59.27121   9.33279  1      179
siesta:      0.00000  61.96535   9.33279  2      180
siesta:      0.00000  63.31243  11.66599  1      181
siesta:      0.00000  66.00657  11.66599  2      182
siesta:      0.00000  67.35365  13.99919  1      183
siesta:      0.00000  70.04779  13.99919  2      184
siesta:      0.00000  71.39486  16.33239  1      185
siesta:      0.00000  74.08901  16.33239  2      186
siesta:      0.00000  75.43608  18.66559  1      187
siesta:      0.00000  78.13023  18.66559  2      188
siesta:      0.00000  79.47730  20.99879  1      189
siesta:      0.00000  82.17145  20.99879  2      190
siesta:      0.00000  83.51852  23.33199  1      191
siesta:      0.00000  86.21267  23.33199  2      192
siesta:      0.00000  26.94146 -13.99919  1      193
siesta:      0.00000  29.63560 -13.99919  2      194
siesta:      0.00000  30.98268 -11.66599  1      195
siesta:      0.00000  33.67682 -11.66599  2      196
siesta:      0.00000  35.02390  -9.33279  1      197
siesta:      0.00000  37.71804  -9.33279  2      198
siesta:      0.00000  39.06511  -6.99960  1      199
siesta:      0.00000  41.75926  -6.99960  2      200
siesta:      0.00000  43.10633  -4.66640  1      201
siesta:      0.00000  45.80048  -4.66640  2      202
siesta:      0.00000  47.14755  -2.33320  1      203
siesta:      0.00000  49.84170  -2.33320  2      204
siesta:      0.00000  51.18877   0.00000  1      205
siesta:      0.00000  53.88292   0.00000  2      206
siesta:      0.00000  55.22999   2.33320  1      207
siesta:      0.00000  57.92414   2.33320  2      208
siesta:      0.00000  59.27121   4.66640  1      209
siesta:      0.00000  61.96535   4.66640  2      210
siesta:      0.00000  63.31243   6.99960  1      211
siesta:      0.00000  66.00657   6.99960  2      212
siesta:      0.00000  67.35365   9.33279  1      213
siesta:      0.00000  70.04779   9.33279  2      214
siesta:      0.00000  71.39486  11.66599  1      215
siesta:      0.00000  74.08901  11.66599  2      216
siesta:      0.00000  75.43608  13.99919  1      217
siesta:      0.00000  78.13023  13.99919  2      218
siesta:      0.00000  79.47730  16.33239  1      219
siesta:      0.00000  82.17145  16.33239  2      220
siesta:      0.00000  83.51852  18.66559  1      221
siesta:      0.00000  86.21267  18.66559  2      222
siesta:      0.00000  87.55974  20.99879  1      223
siesta:      0.00000  90.25388  20.99879  2      224
siesta:      0.00000  30.98268 -16.33239  1      225
siesta:      0.00000  33.67682 -16.33239  2      226
siesta:      0.00000  35.02390 -13.99919  1      227
siesta:      0.00000  37.71804 -13.99919  2      228
siesta:      0.00000  39.06511 -11.66599  1      229
siesta:      0.00000  41.75926 -11.66599  2      230
siesta:      0.00000  43.10633  -9.33279  1      231
siesta:      0.00000  45.80048  -9.33279  2      232
siesta:      0.00000  47.14755  -6.99960  1      233
siesta:      0.00000  49.84170  -6.99960  2      234
siesta:      0.00000  51.18877  -4.66640  1      235
siesta:      0.00000  53.88292  -4.66640  2      236
siesta:      0.00000  55.22999  -2.33320  1      237
siesta:      0.00000  57.92414  -2.33320  2      238
siesta:      0.00000  59.27121   0.00000  1      239
siesta:      0.00000  61.96535   0.00000  2      240
siesta:      0.00000  63.31243   2.33320  1      241
siesta:      0.00000  66.00657   2.33320  2      242
siesta:      0.00000  67.35365   4.66640  1      243
siesta:      0.00000  70.04779   4.66640  2      244
siesta:      0.00000  71.39486   6.99960  1      245
siesta:      0.00000  74.08901   6.99960  2      246
siesta:      0.00000  75.43608   9.33279  1      247
siesta:      0.00000  78.13023   9.33279  2      248
siesta:      0.00000  79.47730  11.66599  1      249
siesta:      0.00000  82.17145  11.66599  2      250
siesta:      0.00000  83.51852  13.99919  1      251
siesta:      0.00000  86.21267  13.99919  2      252
siesta:      0.00000  87.55974  16.33239  1      253
siesta:      0.00000  90.25388  16.33239  2      254
siesta:      0.00000  91.60096  18.66559  1      255
siesta:      0.00000  94.29510  18.66559  2      256
siesta:      0.00000  35.02390 -18.66559  1      257
siesta:      0.00000  37.71804 -18.66559  2      258
siesta:      0.00000  39.06511 -16.33239  1      259
siesta:      0.00000  41.75926 -16.33239  2      260
siesta:      0.00000  43.10633 -13.99919  1      261
siesta:      0.00000  45.80048 -13.99919  2      262
siesta:      0.00000  47.14755 -11.66599  1      263
siesta:      0.00000  49.84170 -11.66599  2      264
siesta:      0.00000  51.18877  -9.33279  1      265
siesta:      0.00000  53.88292  -9.33279  2      266
siesta:      0.00000  55.22999  -6.99960  1      267
siesta:      0.00000  57.92414  -6.99960  2      268
siesta:      0.00000  59.27121  -4.66640  1      269
siesta:      0.00000  61.96535  -4.66640  2      270
siesta:      0.00000  63.31243  -2.33320  1      271
siesta:      0.00000  66.00657  -2.33320  2      272
siesta:      0.00000  67.35365   0.00000  1      273
siesta:      0.00000  70.04779   0.00000  2      274
siesta:      0.00000  71.39486   2.33320  1      275
siesta:      0.00000  74.08901   2.33320  2      276
siesta:      0.00000  75.43608   4.66640  1      277
siesta:      0.00000  78.13023   4.66640  2      278
siesta:      0.00000  79.47730   6.99960  1      279
siesta:      0.00000  82.17145   6.99960  2      280
siesta:      0.00000  83.51852   9.33279  1      281
siesta:      0.00000  86.21267   9.33279  2      282
siesta:      0.00000  87.55974  11.66599  1      283
siesta:      0.00000  90.25388  11.66599  2      284
siesta:      0.00000  91.60096  13.99919  1      285
siesta:      0.00000  94.29510  13.99919  2      286
siesta:      0.00000  95.64218  16.33239  1      287
siesta:      0.00000  98.33632  16.33239  2      288
siesta:      0.00000  39.06511 -20.99879  1      289
siesta:      0.00000  41.75926 -20.99879  2      290
siesta:      0.00000  43.10633 -18.66559  1      291
siesta:      0.00000  45.80048 -18.66559  2      292
siesta:      0.00000  47.14755 -16.33239  1      293
siesta:      0.00000  49.84170 -16.33239  2      294
siesta:      0.00000  51.18877 -13.99919  1      295
siesta:      0.00000  53.88292 -13.99919  2      296
siesta:      0.00000  55.22999 -11.66599  1      297
siesta:      0.00000  57.92414 -11.66599  2      298
siesta:      0.00000  59.27121  -9.33279  1      299
siesta:      0.00000  61.96535  -9.33279  2      300
siesta:      0.00000  63.31243  -6.99960  1      301
siesta:      0.00000  66.00657  -6.99960  2      302
siesta:      0.00000  67.35365  -4.66640  1      303
siesta:      0.00000  70.04779  -4.66640  2      304
siesta:      0.00000  71.39486  -2.33320  1      305
siesta:      0.00000  74.08901  -2.33320  2      306
siesta:      0.00000  75.43608   0.00000  1      307
siesta:      0.00000  78.13023   0.00000  2      308
siesta:      0.00000  79.47730   2.33320  1      309
siesta:      0.00000  82.17145   2.33320  2      310
siesta:      0.00000  83.51852   4.66640  1      311
siesta:      0.00000  86.21267   4.66640  2      312
siesta:      0.00000  87.55974   6.99960  1      313
siesta:      0.00000  90.25388   6.99960  2      314
siesta:      0.00000  91.60096   9.33279  1      315
siesta:      0.00000  94.29510   9.33279  2      316
siesta:      0.00000  95.64218  11.66599  1      317
siesta:      0.00000  98.33632  11.66599  2      318
siesta:      0.00000  99.68340  13.99919  1      319
siesta:      0.00000 102.37754  13.99919  2      320
siesta:      0.00000  43.10633 -23.33199  1      321
siesta:      0.00000  45.80048 -23.33199  2      322
siesta:      0.00000  47.14755 -20.99879  1      323
siesta:      0.00000  49.84170 -20.99879  2      324
siesta:      0.00000  51.18877 -18.66559  1      325
siesta:      0.00000  53.88292 -18.66559  2      326
siesta:      0.00000  55.22999 -16.33239  1      327
siesta:      0.00000  57.92414 -16.33239  2      328
siesta:      0.00000  59.27121 -13.99919  1      329
siesta:      0.00000  61.96535 -13.99919  2      330
siesta:      0.00000  63.31243 -11.66599  1      331
siesta:      0.00000  66.00657 -11.66599  2      332
siesta:      0.00000  67.35365  -9.33279  1      333
siesta:      0.00000  70.04779  -9.33279  2      334
siesta:      0.00000  71.39486  -6.99960  1      335
siesta:      0.00000  74.08901  -6.99960  2      336
siesta:      0.00000  75.43608  -4.66640  1      337
siesta:      0.00000  78.13023  -4.66640  2      338
siesta:      0.00000  79.47730  -2.33320  1      339
siesta:      0.00000  82.17145  -2.33320  2      340
siesta:      0.00000  83.51852   0.00000  1      341
siesta:      0.00000  86.21267   0.00000  2      342
siesta:      0.00000  87.55974   2.33320  1      343
siesta:      0.00000  90.25388   2.33320  2      344
siesta:      0.00000  91.60096   4.66640  1      345
siesta:      0.00000  94.29510   4.66640  2      346
siesta:      0.00000  95.64218   6.99960  1      347
siesta:      0.00000  98.33632   6.99960  2      348
siesta:      0.00000  99.68340   9.33279  1      349
siesta:      0.00000 102.37754   9.33279  2      350
siesta:      0.00000 103.72461  11.66599  1      351
siesta:      0.00000 106.41876  11.66599  2      352
siesta:      0.00000  47.14755 -25.66519  1      353
siesta:      0.00000  49.84170 -25.66519  2      354
siesta:      0.00000  51.18877 -23.33199  1      355
siesta:      0.00000  53.88292 -23.33199  2      356
siesta:      0.00000  55.22999 -20.99879  1      357
siesta:      0.00000  57.92414 -20.99879  2      358
siesta:      0.00000  59.27121 -18.66559  1      359
siesta:      0.00000  61.96535 -18.66559  2      360
siesta:      0.00000  63.31243 -16.33239  1      361
siesta:      0.00000  66.00657 -16.33239  2      362
siesta:      0.00000  67.35365 -13.99919  1      363
siesta:      0.00000  70.04779 -13.99919  2      364
siesta:      0.00000  71.39486 -11.66599  1      365
siesta:      0.00000  74.08901 -11.66599  2      366
siesta:      0.00000  75.43608  -9.33279  1      367
siesta:      0.00000  78.13023  -9.33279  2      368
siesta:      0.00000  79.47730  -6.99960  1      369
siesta:      0.00000  82.17145  -6.99960  2      370
siesta:      0.00000  83.51852  -4.66640  1      371
siesta:      0.00000  86.21267  -4.66640  2      372
siesta:      0.00000  87.55974  -2.33320  1      373
siesta:      0.00000  90.25388  -2.33320  2      374
siesta:      0.00000  91.60096   0.00000  1      375
siesta:      0.00000  94.29510   0.00000  2      376
siesta:      0.00000  95.64218   2.33320  1      377
siesta:      0.00000  98.33632   2.33320  2      378
siesta:      0.00000  99.68340   4.66640  1      379
siesta:      0.00000 102.37754   4.66640  2      380
siesta:      0.00000 103.72461   6.99960  1      381
siesta:      0.00000 106.41876   6.99960  2      382
siesta:      0.00000 107.76583   9.33279  1      383
siesta:      0.00000 110.45998   9.33279  2      384
siesta:      0.00000  51.18877 -27.99838  1      385
siesta:      0.00000  53.88292 -27.99838  2      386
siesta:      0.00000  55.22999 -25.66519  1      387
siesta:      0.00000  57.92414 -25.66519  2      388
siesta:      0.00000  59.27121 -23.33199  1      389
siesta:      0.00000  61.96535 -23.33199  2      390
siesta:      0.00000  63.31243 -20.99879  1      391
siesta:      0.00000  66.00657 -20.99879  2      392
siesta:      0.00000  67.35365 -18.66559  1      393
siesta:      0.00000  70.04779 -18.66559  2      394
siesta:      0.00000  71.39486 -16.33239  1      395
siesta:      0.00000  74.08901 -16.33239  2      396
siesta:      0.00000  75.43608 -13.99919  1      397
siesta:      0.00000  78.13023 -13.99919  2      398
siesta:      0.00000  79.47730 -11.66599  1      399
siesta:      0.00000  82.17145 -11.66599  2      400
siesta:      0.00000  83.51852  -9.33279  1      401
siesta:      0.00000  86.21267  -9.33279  2      402
siesta:      0.00000  87.55974  -6.99960  1      403
siesta:      0.00000  90.25388  -6.99960  2      404
siesta:      0.00000  91.60096  -4.66640  1      405
siesta:      0.00000  94.29510  -4.66640  2      406
siesta:      0.00000  95.64218  -2.33320  1      407
siesta:      0.00000  98.33632  -2.33320  2      408
siesta:      0.00000  99.68340   0.00000  1      409
siesta:      0.00000 102.37754   0.00000  2      410
siesta:      0.00000 103.72461   2.33320  1      411
siesta:      0.00000 106.41876   2.33320  2      412
siesta:      0.00000 107.76583   4.66640  1      413
siesta:      0.00000 110.45998   4.66640  2      414
siesta:      0.00000 111.80705   6.99960  1      415
siesta:      0.00000 114.50120   6.99960  2      416
siesta:      0.00000  55.22999 -30.33158  1      417
siesta:      0.00000  57.92414 -30.33158  2      418
siesta:      0.00000  59.27121 -27.99838  1      419
siesta:      0.00000  61.96535 -27.99838  2      420
siesta:      0.00000  63.31243 -25.66519  1      421
siesta:      0.00000  66.00657 -25.66519  2      422
siesta:      0.00000  67.35365 -23.33199  1      423
siesta:      0.00000  70.04779 -23.33199  2      424
siesta:      0.00000  71.39486 -20.99879  1      425
siesta:      0.00000  74.08901 -20.99879  2      426
siesta:      0.00000  75.43608 -18.66559  1      427
siesta:      0.00000  78.13023 -18.66559  2      428
siesta:      0.00000  79.47730 -16.33239  1      429
siesta:      0.00000  82.17145 -16.33239  2      430
siesta:      0.00000  83.51852 -13.99919  1      431
siesta:      0.00000  86.21267 -13.99919  2      432
siesta:      0.00000  87.55974 -11.66599  1      433
siesta:      0.00000  90.25388 -11.66599  2      434
siesta:      0.00000  91.60096  -9.33279  1      435
siesta:      0.00000  94.29510  -9.33279  2      436
siesta:      0.00000  95.64218  -6.99960  1      437
siesta:      0.00000  98.33632  -6.99960  2      438
siesta:      0.00000  99.68340  -4.66640  1      439
siesta:      0.00000 102.37754  -4.66640  2      440
siesta:      0.00000 103.72461  -2.33320  1      441
siesta:      0.00000 106.41876  -2.33320  2      442
siesta:      0.00000 107.76583   0.00000  1      443
siesta:      0.00000 110.45998   0.00000  2      444
siesta:      0.00000 111.80705   2.33320  1      445
siesta:      0.00000 114.50120   2.33320  2      446
siesta:      0.00000 115.84827   4.66640  1      447
siesta:      0.00000 118.54242   4.66640  2      448
siesta:      0.00000  59.27121 -32.66478  1      449
siesta:      0.00000  61.96535 -32.66478  2      450
siesta:      0.00000  63.31243 -30.33158  1      451
siesta:      0.00000  66.00657 -30.33158  2      452
siesta:      0.00000  67.35365 -27.99838  1      453
siesta:      0.00000  70.04779 -27.99838  2      454
siesta:      0.00000  71.39486 -25.66519  1      455
siesta:      0.00000  74.08901 -25.66519  2      456
siesta:      0.00000  75.43608 -23.33199  1      457
siesta:      0.00000  78.13023 -23.33199  2      458
siesta:      0.00000  79.47730 -20.99879  1      459
siesta:      0.00000  82.17145 -20.99879  2      460
siesta:      0.00000  83.51852 -18.66559  1      461
siesta:      0.00000  86.21267 -18.66559  2      462
siesta:      0.00000  87.55974 -16.33239  1      463
siesta:      0.00000  90.25388 -16.33239  2      464
siesta:      0.00000  91.60096 -13.99919  1      465
siesta:      0.00000  94.29510 -13.99919  2      466
siesta:      0.00000  95.64218 -11.66599  1      467
siesta:      0.00000  98.33632 -11.66599  2      468
siesta:      0.00000  99.68340  -9.33279  1      469
siesta:      0.00000 102.37754  -9.33279  2      470
siesta:      0.00000 103.72461  -6.99960  1      471
siesta:      0.00000 106.41876  -6.99960  2      472
siesta:      0.00000 107.76583  -4.66640  1      473
siesta:      0.00000 110.45998  -4.66640  2      474
siesta:      0.00000 111.80705  -2.33320  1      475
siesta:      0.00000 114.50120  -2.33320  2      476
siesta:      0.00000 115.84827   0.00000  1      477
siesta:      0.00000 118.54242   0.00000  2      478
siesta:      0.00000 119.88949   2.33320  1      479
siesta:      0.00000 122.58363   2.33320  2      480
siesta:      0.00000  63.31243 -34.99798  1      481
siesta:      0.00000  66.00657 -34.99798  2      482
siesta:      0.00000  67.35365 -32.66478  1      483
siesta:      0.00000  70.04779 -32.66478  2      484
siesta:      0.00000  71.39486 -30.33158  1      485
siesta:      0.00000  74.08901 -30.33158  2      486
siesta:      0.00000  75.43608 -27.99838  1      487
siesta:      0.00000  78.13023 -27.99838  2      488
siesta:      0.00000  79.47730 -25.66519  1      489
siesta:      0.00000  82.17145 -25.66519  2      490
siesta:      0.00000  83.51852 -23.33199  1      491
siesta:      0.00000  86.21267 -23.33199  2      492
siesta:      0.00000  87.55974 -20.99879  1      493
siesta:      0.00000  90.25388 -20.99879  2      494
siesta:      0.00000  91.60096 -18.66559  1      495
siesta:      0.00000  94.29510 -18.66559  2      496
siesta:      0.00000  95.64218 -16.33239  1      497
siesta:      0.00000  98.33632 -16.33239  2      498
siesta:      0.00000  99.68340 -13.99919  1      499
siesta:      0.00000 102.37754 -13.99919  2      500
siesta:      0.00000 103.72461 -11.66599  1      501
siesta:      0.00000 106.41876 -11.66599  2      502
siesta:      0.00000 107.76583  -9.33279  1      503
siesta:      0.00000 110.45998  -9.33279  2      504
siesta:      0.00000 111.80705  -6.99960  1      505
siesta:      0.00000 114.50120  -6.99960  2      506
siesta:      0.00000 115.84827  -4.66640  1      507
siesta:      0.00000 118.54242  -4.66640  2      508
siesta:      0.00000 119.88949  -2.33320  1      509
siesta:      0.00000 122.58363  -2.33320  2      510
siesta:      0.00000 123.93071   0.00000  1      511
siesta:      0.00000 126.62485   0.00000  2      512

siesta: System type = slab      

initatomlists: Number of atoms, orbitals, and projectors:    512  6656  8192

siesta: ******************** Simulation parameters ****************************
siesta:
siesta: The following are some of the parameters of the simulation.
siesta: A complete list of the parameters used, including default values,
siesta: can be found in file out.fdf
siesta:
redata: Non-Collinear-spin run           =     F
redata: SpinPolarized (Up/Down) run      =     F
redata: Number of spin components        =     1
redata: Long output                      =     F
redata: Number of Atomic Species         =        2
redata: Charge density info will appear in .RHO file
redata: Write Mulliken Pop.              =     NO
redata: Mesh Cutoff                      =   100.0000  Ry
redata: Net charge of the system         =     0.0000 |e|
redata: Min. number of SCF Iter          =        0
redata: Max. number of SCF Iter          =       50
redata: Mix DM or H after convergence    =     F
redata: Recompute H after scf cycle      =     F
redata: Performing Pulay mixing using    =     3 iterations
redata: Mix DM in first SCF step ?       =     F
redata: Write Pulay info on disk?        =     F
redata: Discard 1st Pulay DM after  kick =     F
redata: New DM Mixing Weight             =     0.3000
redata: New DM Occupancy tolerance       = 0.000000000001
redata: No kicks to SCF
redata: DM Mixing Weight for Kicks       =     0.5000
redata: DM Tolerance for SCF             =     0.000100
redata: Require (free) Energy convergence in SCF =     F
redata: DM (free)Energy tolerance for SCF =     0.000010 eV
redata: Require Harris convergence for SCF =     F
redata: DM Harris energy tolerance for SCF =     0.000010 eV
redata: Using Saved Data (generic)   =     F
redata: Use continuation files for DM    =     F
redata: Neglect nonoverlap interactions  =     F
redata: Method of Calculation            =     QETSc
redata: Fix the spin of the system       =     F
redata: Dynamics option                  =     CG coord. optimization
redata: Variable cell                    =     F
redata: Use continuation files for CG    =     F
redata: Max atomic displ per move        =     0.1890  Bohr
redata: Maximum number of CG moves       =       50
redata: Force tolerance                  =     0.0004  Ry/Bohr
redata: ***********************************************************************
Total number of electrons:  2048.000000
Total ionic charge:  2048.000000

* ProcessorY, Blocksize:   16  26


* Orbital distribution balance (max,min):    26    26

 Kpoints in:  1 . Kpoints trimmed:  1

siesta: k-grid: Number of k-points =     1
siesta: k-grid: Cutoff (effective) =    10.000 Ang
siesta: k-grid: Supercell and displacements
siesta: k-grid:    1   0   0      0.000
siesta: k-grid:    0   1   0      0.000
siesta: k-grid:    0   0   1      0.000

                     ====================================
                        Begin CG opt. move =      0
                     ====================================

outcell: Unit cell vectors (Ang):
       20.000000    0.000000    0.000000
        0.000000   34.216320   19.754802
        0.000000   34.216320  -19.754802

outcell: Cell vector modules (Ang)   :   20.000000   39.509603   39.509603
outcell: Cell angles (23,13,12) (deg):     60.0000     90.0000     90.0000
outcell: Cell volume (Ang**3)        :  27037.4645
New_DM. Step:     1
Initializing Density Matrix...
New grid distribution:   1
           1       1:   64    1:    7    1:    7
           2       1:   64    1:    7    8:   14
           3       1:   64    1:    7   15:   21
           4       1:   64    1:    7   22:   28
           5       1:   64    1:    7   29:   35
           6       1:   64    1:    7   36:   42
           7       1:   64    1:    7   43:   49
           8       1:   64    1:    7   50:   56
           9       1:   64    1:    7   57:   63
          10       1:   64    1:    7   64:   70
          11       1:   64    1:    7   71:   77
          12       1:   64    1:    7   78:   84
          13       1:   64    1:    7   85:   90
          14       1:   64    1:    7   91:   96
          15       1:   64    1:    7   97:  102
          16       1:   64    1:    7  103:  108
          17       1:   64    8:   14    1:    7
          18       1:   64    8:   14    8:   14
          19       1:   64    8:   14   15:   21
          20       1:   64    8:   14   22:   28
          21       1:   64    8:   14   29:   35
          22       1:   64    8:   14   36:   42
          23       1:   64    8:   14   43:   49
          24       1:   64    8:   14   50:   56
          25       1:   64    8:   14   57:   63
          26       1:   64    8:   14   64:   70
          27       1:   64    8:   14   71:   77
          28       1:   64    8:   14   78:   84
          29       1:   64    8:   14   85:   90
          30       1:   64    8:   14   91:   96
          31       1:   64    8:   14   97:  102
          32       1:   64    8:   14  103:  108
          33       1:   64   15:   21    1:    7
          34       1:   64   15:   21    8:   14
          35       1:   64   15:   21   15:   21
          36       1:   64   15:   21   22:   28
          37       1:   64   15:   21   29:   35
          38       1:   64   15:   21   36:   42
          39       1:   64   15:   21   43:   49
          40       1:   64   15:   21   50:   56
          41       1:   64   15:   21   57:   63
          42       1:   64   15:   21   64:   70
          43       1:   64   15:   21   71:   77
          44       1:   64   15:   21   78:   84
          45       1:   64   15:   21   85:   90
          46       1:   64   15:   21   91:   96
          47       1:   64   15:   21   97:  102
          48       1:   64   15:   21  103:  108
          49       1:   64   22:   28    1:    7
          50       1:   64   22:   28    8:   14
          51       1:   64   22:   28   15:   21
          52       1:   64   22:   28   22:   28
          53       1:   64   22:   28   29:   35
          54       1:   64   22:   28   36:   42
          55       1:   64   22:   28   43:   49
          56       1:   64   22:   28   50:   56
          57       1:   64   22:   28   57:   63
          58       1:   64   22:   28   64:   70
          59       1:   64   22:   28   71:   77
          60       1:   64   22:   28   78:   84
          61       1:   64   22:   28   85:   90
          62       1:   64   22:   28   91:   96
          63       1:   64   22:   28   97:  102
          64       1:   64   22:   28  103:  108
          65       1:   64   29:   35    1:    7
          66       1:   64   29:   35    8:   14
          67       1:   64   29:   35   15:   21
          68       1:   64   29:   35   22:   28
          69       1:   64   29:   35   29:   35
          70       1:   64   29:   35   36:   42
          71       1:   64   29:   35   43:   49
          72       1:   64   29:   35   50:   56
          73       1:   64   29:   35   57:   63
          74       1:   64   29:   35   64:   70
          75       1:   64   29:   35   71:   77
          76       1:   64   29:   35   78:   84
          77       1:   64   29:   35   85:   90
          78       1:   64   29:   35   91:   96
          79       1:   64   29:   35   97:  102
          80       1:   64   29:   35  103:  108
          81       1:   64   36:   42    1:    7
          82       1:   64   36:   42    8:   14
          83       1:   64   36:   42   15:   21
          84       1:   64   36:   42   22:   28
          85       1:   64   36:   42   29:   35
          86       1:   64   36:   42   36:   42
          87       1:   64   36:   42   43:   49
          88       1:   64   36:   42   50:   56
          89       1:   64   36:   42   57:   63
          90       1:   64   36:   42   64:   70
          91       1:   64   36:   42   71:   77
          92       1:   64   36:   42   78:   84
          93       1:   64   36:   42   85:   90
          94       1:   64   36:   42   91:   96
          95       1:   64   36:   42   97:  102
          96       1:   64   36:   42  103:  108
          97       1:   64   43:   49    1:    7
          98       1:   64   43:   49    8:   14
          99       1:   64   43:   49   15:   21
         100       1:   64   43:   49   22:   28
         101       1:   64   43:   49   29:   35
         102       1:   64   43:   49   36:   42
         103       1:   64   43:   49   43:   49
         104       1:   64   43:   49   50:   56
         105       1:   64   43:   49   57:   63
         106       1:   64   43:   49   64:   70
         107       1:   64   43:   49   71:   77
         108       1:   64   43:   49   78:   84
         109       1:   64   43:   49   85:   90
         110       1:   64   43:   49   91:   96
         111       1:   64   43:   49   97:  102
         112       1:   64   43:   49  103:  108
         113       1:   64   50:   56    1:    7
         114       1:   64   50:   56    8:   14
         115       1:   64   50:   56   15:   21
         116       1:   64   50:   56   22:   28
         117       1:   64   50:   56   29:   35
         118       1:   64   50:   56   36:   42
         119       1:   64   50:   56   43:   49
         120       1:   64   50:   56   50:   56
         121       1:   64   50:   56   57:   63
         122       1:   64   50:   56   64:   70
         123       1:   64   50:   56   71:   77
         124       1:   64   50:   56   78:   84
         125       1:   64   50:   56   85:   90
         126       1:   64   50:   56   91:   96
         127       1:   64   50:   56   97:  102
         128       1:   64   50:   56  103:  108
         129       1:   64   57:   63    1:    7
         130       1:   64   57:   63    8:   14
         131       1:   64   57:   63   15:   21
         132       1:   64   57:   63   22:   28
         133       1:   64   57:   63   29:   35
         134       1:   64   57:   63   36:   42
         135       1:   64   57:   63   43:   49
         136       1:   64   57:   63   50:   56
         137       1:   64   57:   63   57:   63
         138       1:   64   57:   63   64:   70
         139       1:   64   57:   63   71:   77
         140       1:   64   57:   63   78:   84
         141       1:   64   57:   63   85:   90
         142       1:   64   57:   63   91:   96
         143       1:   64   57:   63   97:  102
         144       1:   64   57:   63  103:  108
         145       1:   64   64:   70    1:    7
         146       1:   64   64:   70    8:   14
         147       1:   64   64:   70   15:   21
         148       1:   64   64:   70   22:   28
         149       1:   64   64:   70   29:   35
         150       1:   64   64:   70   36:   42
         151       1:   64   64:   70   43:   49
         152       1:   64   64:   70   50:   56
         153       1:   64   64:   70   57:   63
         154       1:   64   64:   70   64:   70
         155       1:   64   64:   70   71:   77
         156       1:   64   64:   70   78:   84
         157       1:   64   64:   70   85:   90
         158       1:   64   64:   70   91:   96
         159       1:   64   64:   70   97:  102
         160       1:   64   64:   70  103:  108
         161       1:   64   71:   77    1:    7
         162       1:   64   71:   77    8:   14
         163       1:   64   71:   77   15:   21
         164       1:   64   71:   77   22:   28
         165       1:   64   71:   77   29:   35
         166       1:   64   71:   77   36:   42
         167       1:   64   71:   77   43:   49
         168       1:   64   71:   77   50:   56
         169       1:   64   71:   77   57:   63
         170       1:   64   71:   77   64:   70
         171       1:   64   71:   77   71:   77
         172       1:   64   71:   77   78:   84
         173       1:   64   71:   77   85:   90
         174       1:   64   71:   77   91:   96
         175       1:   64   71:   77   97:  102
         176       1:   64   71:   77  103:  108
         177       1:   64   78:   84    1:    7
         178       1:   64   78:   84    8:   14
         179       1:   64   78:   84   15:   21
         180       1:   64   78:   84   22:   28
         181       1:   64   78:   84   29:   35
         182       1:   64   78:   84   36:   42
         183       1:   64   78:   84   43:   49
         184       1:   64   78:   84   50:   56
         185       1:   64   78:   84   57:   63
         186       1:   64   78:   84   64:   70
         187       1:   64   78:   84   71:   77
         188       1:   64   78:   84   78:   84
         189       1:   64   78:   84   85:   90
         190       1:   64   78:   84   91:   96
         191       1:   64   78:   84   97:  102
         192       1:   64   78:   84  103:  108
         193       1:   64   85:   90    1:    7
         194       1:   64   85:   90    8:   14
         195       1:   64   85:   90   15:   21
         196       1:   64   85:   90   22:   28
         197       1:   64   85:   90   29:   35
         198       1:   64   85:   90   36:   42
         199       1:   64   85:   90   43:   49
         200       1:   64   85:   90   50:   56
         201       1:   64   85:   90   57:   63
         202       1:   64   85:   90   64:   70
         203       1:   64   85:   90   71:   77
         204       1:   64   85:   90   78:   84
         205       1:   64   85:   90   85:   90
         206       1:   64   85:   90   91:   96
         207       1:   64   85:   90   97:  102
         208       1:   64   85:   90  103:  108
         209       1:   64   91:   96    1:    7
         210       1:   64   91:   96    8:   14
         211       1:   64   91:   96   15:   21
         212       1:   64   91:   96   22:   28
         213       1:   64   91:   96   29:   35
         214       1:   64   91:   96   36:   42
         215       1:   64   91:   96   43:   49
         216       1:   64   91:   96   50:   56
         217       1:   64   91:   96   57:   63
         218       1:   64   91:   96   64:   70
         219       1:   64   91:   96   71:   77
         220       1:   64   91:   96   78:   84
         221       1:   64   91:   96   85:   90
         222       1:   64   91:   96   91:   96
         223       1:   64   91:   96   97:  102
         224       1:   64   91:   96  103:  108
         225       1:   64   97:  102    1:    7
         226       1:   64   97:  102    8:   14
         227       1:   64   97:  102   15:   21
         228       1:   64   97:  102   22:   28
         229       1:   64   97:  102   29:   35
         230       1:   64   97:  102   36:   42
         231       1:   64   97:  102   43:   49
         232       1:   64   97:  102   50:   56
         233       1:   64   97:  102   57:   63
         234       1:   64   97:  102   64:   70
         235       1:   64   97:  102   71:   77
         236       1:   64   97:  102   78:   84
         237       1:   64   97:  102   85:   90
         238       1:   64   97:  102   91:   96
         239       1:   64   97:  102   97:  102
         240       1:   64   97:  102  103:  108
         241       1:   64  103:  108    1:    7
         242       1:   64  103:  108    8:   14
         243       1:   64  103:  108   15:   21
         244       1:   64  103:  108   22:   28
         245       1:   64  103:  108   29:   35
         246       1:   64  103:  108   36:   42
         247       1:   64  103:  108   43:   49
         248       1:   64  103:  108   50:   56
         249       1:   64  103:  108   57:   63
         250       1:   64  103:  108   64:   70
         251       1:   64  103:  108   71:   77
         252       1:   64  103:  108   78:   84
         253       1:   64  103:  108   85:   90
         254       1:   64  103:  108   91:   96
         255       1:   64  103:  108   97:  102
         256       1:   64  103:  108  103:  108

InitMesh: MESH =   128 x   216 x   216 =     5971968
InitMesh: (bp) =    64 x   108 x   108 =      746496
InitMesh: Mesh cutoff (required, used) =   100.000   110.139 Ry
ExtMesh (bp) on 0 =   104 x    47 x    47 =      229736
New grid distribution:   2
           1       7:   61    1:   14    1:   14
           2       1:    2   68:   81   55:   67
           3       3:    6    1:   13   14:   27
           4      62:   64    1:   13   14:   27
           5       7:   61    1:   14   28:   41
           6       1:    2    1:   13    1:   13
           7       3:    6    1:   13   41:   54
           8      62:   64    1:   13   41:   54
           9       7:   61    1:   14   55:   68
          10       1:    2    1:   13   28:   40
          11       3:    6    1:   13   68:   81
          12      62:   64    1:   13   68:   81
          13       7:   61    1:   14   82:   95
          14       1:    2   55:   67   55:   67
          15       3:    6    1:   13   95:  108
          16      62:   64    1:   13   95:  108
          17       3:    6    1:   13    1:   13
          18      62:   64    1:   13    1:   13
          19       7:   61    1:   14   15:   27
          20       1:    2    1:   14   14:   27
          21       3:    6    1:   13   28:   40
          22      62:   64    1:   13   28:   40
          23       7:   61    1:   14   42:   54
          24       1:    2    1:   14   41:   54
          25       3:    6    1:   13   55:   67
          26      62:   64    1:   13   55:   67
          27       7:   61    1:   14   69:   81
          28       1:    2    1:   14   68:   81
          29       3:    6    1:   13   82:   94
          30      62:   64    1:   13   82:   94
          31       7:   61    1:   14   96:  108
          32       1:    2    1:   14   95:  108
          33       7:   61   15:   27    1:   14
          34       1:    2   14:   27    1:   13
          35       3:    6   14:   27   14:   27
          36      62:   64   14:   27   14:   27
          37       7:   61   15:   27   28:   41
          38       1:    2   14:   27   28:   40
          39       3:    6   14:   27   41:   54
          40      62:   64   14:   27   41:   54
          41       7:   61   15:   27   55:   68
          42       1:    2   14:   27   55:   67
          43       3:    6   14:   27   68:   81
          44      62:   64   14:   27   68:   81
          45       7:   61   15:   27   82:   95
          46       1:    2   14:   27   82:   94
          47       3:    6   14:   27   95:  108
          48      62:   64   14:   27   95:  108
          49       3:    6   14:   27    1:   13
          50      62:   64   14:   27    1:   13
          51       7:   61   15:   27   15:   27
          52       1:    2   15:   27   14:   27
          53       3:    6   14:   27   28:   40
          54      62:   64   14:   27   28:   40
          55       7:   61   15:   27   42:   54
          56       1:    2   15:   27   41:   54
          57       3:    6   14:   27   55:   67
          58      62:   64   14:   27   55:   67
          59       7:   61   15:   27   69:   81
          60       1:    2   15:   27   68:   81
          61       3:    6   14:   27   82:   94
          62      62:   64   14:   27   82:   94
          63       7:   61   15:   27   96:  108
          64       1:    2   15:   27   95:  108
          65       7:   61   28:   41    1:   14
          66       1:    2   28:   40    1:   13
          67       3:    6   28:   40   14:   27
          68      62:   64   28:   40   14:   27
          69       7:   61   28:   41   28:   41
          70       1:    2   28:   40   28:   40
          71       3:    6   28:   40   41:   54
          72      62:   64   28:   40   41:   54
          73       7:   61   28:   41   55:   68
          74       1:    2   28:   40   55:   67
          75       3:    6   28:   40   68:   81
          76      62:   64   28:   40   68:   81
          77       7:   61   28:   41   82:   95
          78       1:    2    1:   13   55:   67
          79       3:    6   28:   40   95:  108
          80      62:   64   28:   40   95:  108
          81       3:    6   28:   40    1:   13
          82      62:   64   28:   40    1:   13
          83       7:   61   28:   41   15:   27
          84       1:    2   28:   41   14:   27
          85       3:    6   28:   40   28:   40
          86      62:   64   28:   40   28:   40
          87       7:   61   28:   41   42:   54
          88       1:    2   28:   41   41:   54
          89       3:    6   28:   40   55:   67
          90      62:   64   28:   40   55:   67
          91       7:   61   28:   41   69:   81
          92       1:    2   28:   41   68:   81
          93       3:    6   28:   40   82:   94
          94      62:   64   28:   40   82:   94
          95       7:   61   28:   41   96:  108
          96       1:    2   28:   41   95:  108
          97       7:   61   42:   54    1:   14
          98       1:    2   41:   54    1:   13
          99       3:    6   41:   54   14:   27
         100      62:   64   41:   54   14:   27
         101       7:   61   42:   54   28:   41
         102       1:    2   41:   54   28:   40
         103       3:    6   41:   54   41:   54
         104      62:   64   41:   54   41:   54
         105       7:   61   42:   54   55:   68
         106       1:    2   41:   54   55:   67
         107       3:    6   41:   54   68:   81
         108      62:   64   41:   54   68:   81
         109       7:   61   42:   54   82:   95
         110       1:    2   41:   54   82:   94
         111       3:    6   41:   54   95:  108
         112      62:   64   41:   54   95:  108
         113       3:    6   41:   54    1:   13
         114      62:   64   41:   54    1:   13
         115       7:   61   42:   54   15:   27
         116       1:    2   42:   54   14:   27
         117       3:    6   41:   54   28:   40
         118      62:   64   41:   54   28:   40
         119       7:   61   42:   54   42:   54
         120       1:    2   42:   54   41:   54
         121       3:    6   41:   54   55:   67
         122      62:   64   41:   54   55:   67
         123       7:   61   42:   54   69:   81
         124       1:    2   42:   54   68:   81
         125       3:    6   41:   54   82:   94
         126      62:   64   41:   54   82:   94
         127       7:   61   42:   54   96:  108
         128       1:    2   42:   54   95:  108
         129       7:   61   55:   68    1:   14
         130       1:    2   55:   67    1:   13
         131       3:    6   55:   67   14:   27
         132      62:   64   55:   67   14:   27
         133       7:   61   55:   68   28:   41
         134       1:    2   55:   67   28:   40
         135       3:    6   55:   67   41:   54
         136      62:   64   55:   67   41:   54
         137       7:   61   55:   68   55:   68
         138       1:    2   55:   68   68:   81
         139       3:    6   55:   67   68:   81
         140      62:   64   55:   67   68:   81
         141       7:   61   55:   68   82:   95
         142       1:    2   55:   67   82:   94
         143       3:    6   55:   67   95:  108
         144      62:   64   55:   67   95:  108
         145       3:    6   55:   67    1:   13
         146      62:   64   55:   67    1:   13
         147       7:   61   55:   68   15:   27
         148       1:    2   55:   68   14:   27
         149       3:    6   55:   67   28:   40
         150      62:   64   55:   67   28:   40
         151       7:   61   55:   68   42:   54
         152       1:    2   55:   68   41:   54
         153       3:    6   55:   67   55:   67
         154      62:   64   55:   67   55:   67
         155       7:   61   55:   68   69:   81
         156       1:    2   28:   40   82:   94
         157       3:    6   55:   67   82:   94
         158      62:   64   55:   67   82:   94
         159       7:   61   55:   68   96:  108
         160       1:    2   55:   68   95:  108
         161       7:   61   69:   81    1:   14
         162       1:    2   68:   81    1:   13
         163       3:    6   68:   81   14:   27
         164      62:   64   68:   81   14:   27
         165       7:   61   69:   81   28:   41
         166       1:    2   68:   81   28:   40
         167       3:    6   68:   81   41:   54
         168      62:   64   68:   81   41:   54
         169       7:   61   69:   81   55:   68
         170       1:    2   69:   81   68:   81
         171       3:    6   68:   81   68:   81
         172      62:   64   68:   81   68:   81
         173       7:   61   69:   81   82:   95
         174       1:    2   68:   81   82:   94
         175       3:    6   68:   81   95:  108
         176      62:   64   68:   81   95:  108
         177       3:    6   68:   81    1:   13
         178      62:   64   68:   81    1:   13
         179       7:   61   69:   81   15:   27
         180       1:    2   69:   81   14:   27
         181       3:    6   68:   81   28:   40
         182      62:   64   68:   81   28:   40
         183       7:   61   69:   81   42:   54
         184       1:    2   69:   81   41:   54
         185       3:    6   68:   81   55:   67
         186      62:   64   68:   81   55:   67
         187       7:   61   69:   81   69:   81
         188       1:    2    1:   13   82:   94
         189       3:    6   68:   81   82:   94
         190      62:   64   68:   81   82:   94
         191       7:   61   69:   81   96:  108
         192       1:    2   69:   81   95:  108
         193       7:   61   82:   95    1:   14
         194       1:    2   82:   94    1:   13
         195       3:    6   82:   94   14:   27
         196      62:   64   82:   94   14:   27
         197       7:   61   82:   95   28:   41
         198       1:    2   82:   94   28:   40
         199       3:    6   82:   94   41:   54
         200      62:   64   82:   94   41:   54
         201       7:   61   82:   95   55:   68
         202       1:    2   82:   94   55:   67
         203       3:    6   82:   94   68:   81
         204      62:   64   82:   94   68:   81
         205       7:   61   82:   95   82:   95
         206       1:    2   82:   94   82:   94
         207       3:    6   82:   94   95:  108
         208      62:   64   82:   94   95:  108
         209       3:    6   82:   94    1:   13
         210      62:   64   82:   94    1:   13
         211       7:   61   82:   95   15:   27
         212       1:    2   82:   95   14:   27
         213       3:    6   82:   94   28:   40
         214      62:   64   82:   94   28:   40
         215       7:   61   82:   95   42:   54
         216       1:    2   82:   95   41:   54
         217       3:    6   82:   94   55:   67
         218      62:   64   82:   94   55:   67
         219       7:   61   82:   95   69:   81
         220       1:    2   82:   95   68:   81
         221       3:    6   82:   94   82:   94
         222      62:   64   82:   94   82:   94
         223       7:   61   82:   95   96:  108
         224       1:    2   82:   95   95:  108
         225       7:   61   96:  108    1:   14
         226       1:    2   95:  108    1:   13
         227       3:    6   95:  108   14:   27
         228      62:   64   95:  108   14:   27
         229       7:   61   96:  108   28:   41
         230       1:    2   95:  108   28:   40
         231       3:    6   95:  108   41:   54
         232      62:   64   95:  108   41:   54
         233       7:   61   96:  108   55:   68
         234       1:    2   95:  108   55:   67
         235       3:    6   95:  108   68:   81
         236      62:   64   95:  108   68:   81
         237       7:   61   96:  108   82:   95
         238       1:    2   95:  108   82:   94
         239       3:    6   95:  108   95:  108
         240      62:   64   95:  108   95:  108
         241       3:    6   95:  108    1:   13
         242      62:   64   95:  108    1:   13
         243       7:   61   96:  108   15:   27
         244       1:    2   96:  108   14:   27
         245       3:    6   95:  108   28:   40
         246      62:   64   95:  108   28:   40
         247       7:   61   96:  108   42:   54
         248       1:    2   96:  108   41:   54
         249       3:    6   95:  108   55:   67
         250      62:   64   95:  108   55:   67
         251       7:   61   96:  108   69:   81
         252       1:    2   96:  108   68:   81
         253       3:    6   95:  108   82:   94
         254      62:   64   95:  108   82:   94
         255       7:   61   96:  108   96:  108
         256       1:    2   96:  108   95:  108
New grid distribution:   3
           1      11:   59    1:   14    1:   14
           2       1:    5    1:   14    1:   14
           3      60:   64    1:   14   15:   27
           4       6:   10    1:   13   14:   27
           5      11:   59    1:   14   28:   41
           6       1:    5    1:   14   28:   41
           7       1:    5    1:   14   42:   54
           8       6:   10    1:   14   55:   67
           9      11:   59    1:   14   55:   68
          10      60:   64    1:   14   55:   68
          11      60:   64    1:   14   69:   81
          12       6:   10    1:   14   82:   94
          13      11:   59    1:   14   82:   95
          14      60:   64    1:   14   82:   95
          15      60:   64    1:   14   96:  108
          16       6:   10    1:   13   95:  108
          17      60:   64    1:   14    1:   14
          18       6:   10    1:   13   68:   81
          19      11:   59    1:   14   15:   27
          20       1:    5    1:   14   15:   27
          21      60:   64    1:   14   28:   41
          22       6:   10    1:   14   28:   40
          23      11:   59    1:   14   42:   54
          24       6:   10    1:   13   41:   54
          25       1:    5    1:   14   55:   68
          26       6:   10    1:   14    1:   13
          27      11:   59    1:   14   69:   81
          28       1:    5    1:   14   69:   81
          29       1:    5    1:   14   82:   95
          30       6:   10   82:   95    1:   13
          31      11:   59    1:   14   96:  108
          32       6:   10   42:   54    1:   13
          33      11:   59   15:   27    1:   14
          34      60:   64   15:   27    1:   14
          35       6:   10   14:   27   14:   27
          36       1:    5   15:   27   15:   27
          37      11:   59   15:   27   28:   41
          38       1:    5   15:   27   28:   41
          39       6:   10   14:   27   41:   54
          40       1:    5   15:   27   42:   54
          41      11:   59   15:   27   55:   68
          42       6:   10   82:   94   41:   54
          43       6:   10   14:   27   68:   81
          44       1:    5   15:   27   69:   81
          45      11:   59   15:   27   82:   95
          46       6:   10   82:   95   28:   40
          47       6:   10   14:   27   95:  108
          48       1:    5   15:   27   96:  108
          49       1:    5   15:   27    1:   14
          50       6:   10   15:   27    1:   13
          51      11:   59   15:   27   15:   27
          52      60:   64   28:   41   15:   27
          53       6:   10   28:   40   14:   27
          54       1:    5   55:   68   42:   54
          55      11:   59   15:   27   42:   54
          56       6:   10   15:   27   55:   67
          57      60:   64   15:   27   55:   68
          58       1:    5   15:   27   55:   68
          59      11:   59   15:   27   69:   81
          60      60:   64   28:   41   69:   81
          61      60:   64   15:   27   82:   95
          62       6:   10   15:   27   82:   94
          63      11:   59   15:   27   96:  108
          64       6:   10   28:   40   95:  108
          65      11:   59   28:   41    1:   14
          66       1:    5   28:   41    1:   14
          67      60:   64   96:  108   15:   27
          68       6:   10   28:   41   28:   40
          69      11:   59   28:   41   28:   41
          70      60:   64   28:   41   28:   41
          71       1:    5   28:   41   42:   54
          72       6:   10   69:   81   55:   67
          73      11:   59   28:   41   55:   68
          74      60:   64   28:   41   55:   68
          75       6:   10   55:   67   41:   54
          76       1:    5   28:   41   69:   81
          77      11:   59   28:   41   82:   95
          78      60:   64   28:   41   82:   95
          79      60:   64   28:   41   96:  108
          80       1:    5   28:   41   96:  108
          81      60:   64   28:   41    1:   14
          82       6:   10   28:   41    1:   13
          83      11:   59   28:   41   15:   27
          84       6:   10   15:   27   28:   40
          85       1:    5   28:   41   28:   41
          86       6:   10   96:  108   55:   67
          87      11:   59   28:   41   42:   54
          88       6:   10   28:   40   41:   54
          89       1:    5   28:   41   55:   68
          90       1:    5   15:   27   82:   95
          91      11:   59   28:   41   69:   81
          92       1:    5   42:   54   69:   81
          93       1:    5   28:   41   82:   95
          94       1:    5    1:   14   96:  108
          95      11:   59   28:   41   96:  108
          96      60:   64   15:   27   69:   81
          97      11:   59   42:   54    1:   14
          98       1:    5   42:   54    1:   14
          99       6:   10   41:   54   14:   27
         100       1:    5   42:   54   15:   27
         101      11:   59   42:   54   28:   41
         102       1:    5   42:   54   28:   41
         103       6:   10   41:   54   41:   54
         104       6:   10   42:   54   55:   67
         105      11:   59   42:   54   55:   68
         106       6:   10   28:   40   68:   81
         107       6:   10   41:   54   68:   81
         108       1:    5   42:   54   82:   95
         109      11:   59   42:   54   82:   95
         110      60:   64   42:   54   82:   95
         111       6:   10   41:   54   95:  108
         112       1:    5   42:   54   96:  108
         113      60:   64   42:   54    1:   14
         114       6:   10   28:   41   55:   67
         115      11:   59   42:   54   15:   27
         116      60:   64   15:   27   42:   54
         117       6:   10   55:   68   28:   40
         118       1:    5   42:   54   42:   54
         119      11:   59   42:   54   42:   54
         120      60:   64   42:   54   55:   68
         121       1:    5   42:   54   55:   68
         122       1:    5   55:   68   69:   81
         123      11:   59   42:   54   69:   81
         124      60:   64   55:   68   69:   81
         125      60:   64   42:   54   28:   41
         126       1:    5   69:   81    1:   14
         127      11:   59   42:   54   96:  108
         128      60:   64   42:   54   96:  108
         129      11:   59   55:   68    1:   14
         130      60:   64   55:   68    1:   14
         131      60:   64   55:   68   15:   27
         132       6:   10   55:   67   14:   27
         133      11:   59   55:   68   28:   41
         134      60:   64   55:   68   28:   41
         135      60:   64   55:   68   42:   54
         136      60:   64   42:   54   15:   27
         137      11:   59   55:   68   55:   68
         138      60:   64   55:   68   55:   68
         139       6:   10   55:   67   68:   81
         140       6:   10   42:   54   82:   94
         141      11:   59   55:   68   82:   95
         142       1:    5   55:   68   82:   95
         143       1:    5   55:   68   96:  108
         144      60:   64   55:   68   96:  108
         145       1:    5   55:   68    1:   14
         146       6:   10   55:   68    1:   13
         147      11:   59   55:   68   15:   27
         148      60:   64   69:   81   15:   27
         149       1:    5   55:   68   28:   41
         150      60:   64   69:   81   28:   41
         151      11:   59   55:   68   42:   54
         152      60:   64   69:   81   42:   54
         153       1:    5   55:   68   55:   68
         154       6:   10   55:   68   55:   67
         155      11:   59   55:   68   69:   81
         156       1:    5   69:   81   69:   81
         157      60:   64   55:   68   82:   95
         158       1:    5   69:   81   96:  108
         159      11:   59   55:   68   96:  108
         160       6:   10   55:   67   95:  108
         161      11:   59   69:   81    1:   14
         162      60:   64   69:   81    1:   14
         163       6:   10   68:   81   14:   27
         164       1:    5   69:   81   15:   27
         165      11:   59   69:   81   28:   41
         166       6:   10   69:   81   28:   40
         167       6:   10   68:   81   41:   54
         168       1:    5   69:   81   55:   68
         169      11:   59   69:   81   55:   68
         170      60:   64   69:   81   55:   68
         171       6:   10   68:   81   68:   81
         172      60:   64   69:   81   82:   95
         173      11:   59   69:   81   82:   95
         174       1:    5   69:   81   82:   95
         175       6:   10   68:   81   95:  108
[...]
Objects:              4.487e+03      2.01391   3.261e+03
Flops:                4.812e+10   87652.77172   1.328e+10  3.398e+12
Flops/sec:            2.519e+07   87652.77141   6.949e+06  1.779e+09
MPI Messages:         4.650e+05     29.13711   2.034e+05  5.207e+07
MPI Message Lengths:  1.014e+09     26.37876   2.203e+03  1.147e+11
MPI Reductions:       7.693e+04      2.92476

Flop counting convention: 1 flop = 1 real number operation of type (multiply/divide/add/subtract)
                            e.g., VecAXPY() for real vectors of length N --> 2N flops
                            and VecAXPY() for complex vectors of length N --> 8N flops

Summary of Stages:   ----- Time ------  ----- Flops -----  --- Messages ---  -- Message Lengths --  -- Reductions --
                        Avg     %Total     Avg     %Total   counts   %Total     Avg         %Total   counts   %Total 
 0:      Main Stage: 1.9660e-04   0.0%  0.0000e+00   0.0%  0.000e+00   0.0%  0.000e+00        0.0%  0.000e+00   0.0% 
 1:     siesta_init: 3.0818e+00   0.2%  0.0000e+00   0.0%  0.000e+00   0.0%  0.000e+00        0.0%  0.000e+00   0.0% 
 2:   siesta_forces: 4.9300e+01   2.6%  0.0000e+00   0.0%  0.000e+00   0.0%  0.000e+00        0.0%  0.000e+00   0.0% 
 3:    siesta_solve: 1.1490e-02   0.0%  0.0000e+00   0.0%  0.000e+00   0.0%  0.000e+00        0.0%  0.000e+00   0.0% 
 4:    siesta2qetsc: 8.1386e-01   0.0%  0.0000e+00   0.0%  1.121e+05   0.2%  1.537e-01        0.0%  1.390e+02   0.5% 
 5: qetsc_setup_eps: 3.5198e+01   1.8%  6.2399e+08   0.0%  6.162e+05   1.2%  1.912e+02        8.7%  6.060e+02   2.3% 
 6: qetsc_solve_eps: 1.7109e+03  89.6%  3.3978e+12 100.0%  4.524e+07  86.9%  1.988e+03       90.2%  2.430e+04  92.3% 
 7:   qetsc_eigvals: 4.3270e-02   0.0%  0.0000e+00   0.0%  0.000e+00   0.0%  0.000e+00        0.0%  0.000e+00   0.0% 
 8:   qetsc_density: 6.4171e+01   3.4%  0.0000e+00   0.0%  6.104e+06  11.7%  2.350e+01        1.1%  2.469e+04  93.8% 
10:     siesta_misc: 4.3862e+01   2.3%  0.0000e+00   0.0%  0.000e+00   0.0%  0.000e+00        0.0%  0.000e+00   0.0% 
11:     siesta_move: 4.7131e-01   0.0%  0.0000e+00   0.0%  0.000e+00   0.0%  0.000e+00        0.0%  0.000e+00   0.0% 
12: siesta_analysis: 6.3313e-03   0.0%  0.0000e+00   0.0%  0.000e+00   0.0%  0.000e+00        0.0%  0.000e+00   0.0% 
13:     qetsc_clean: 3.7472e-06   0.0%  0.0000e+00   0.0%  0.000e+00   0.0%  0.000e+00        0.0%  0.000e+00   0.0% 
14:      siesta_end: 2.4038e+00   0.1%  0.0000e+00   0.0%  0.000e+00   0.0%  0.000e+00        0.0%  0.000e+00   0.0% 

------------------------------------------------------------------------------------------------------------------------
See the 'Profiling' chapter of the users' manual for details on interpreting output.
Phase summary info:
   Count: number of times phase was executed
   Time and Flops: Max - maximum over all processors
                   Ratio - ratio of maximum to minimum over all processors
   Mess: number of messages sent
   Avg. len: average message length (bytes)
   Reduct: number of global reductions
   Global: entire computation
   Stage: stages of a computation. Set stages with PetscLogStagePush() and PetscLogStagePop().
      %T - percent time in this phase         %F - percent flops in this phase
      %M - percent messages in this phase     %L - percent message lengths in this phase
      %R - percent reductions in this phase
   Total Mflop/s: 10e-6 * (sum of flops over all processors)/(max time over all processors)
------------------------------------------------------------------------------------------------------------------------
Event                Count      Time (sec)     Flops                             --- Global ---  --- Stage ---   Total
                   Max Ratio  Max     Ratio   Max  Ratio  Mess   Avg len Reduct  %T %F %M %L %R  %T %F %M %L %R Mflop/s
------------------------------------------------------------------------------------------------------------------------

--- Event Stage 0: Main Stage


--- Event Stage 1: siesta_init


--- Event Stage 2: siesta_forces


--- Event Stage 3: siesta_solve


--- Event Stage 4: siesta2qetsc

MatConvert             6 1.0 4.2992e-03 1.1 0.00e+00 0.0 0.0e+00 0.0e+00 0.0e+00  0  0  0  0  0   1  0  0  0  0     0
MatAssemblyBegin      25 1.0 7.1923e-0110.7 0.00e+00 0.0 0.0e+00 0.0e+00 1.0e+02  0  0  0  0  0  54  0  0  0 72     0
MatAssemblyEnd        25 1.0 1.7283e-02 1.0 0.00e+00 0.0 1.1e+05 7.1e+01 3.3e+01  0  0  0  0  0   2  0100100 24     0
VecSet                 9 1.0 4.4522e-05 1.5 0.00e+00 0.0 0.0e+00 0.0e+00 0.0e+00  0  0  0  0  0   0  0  0  0  0     0

--- Event Stage 5: qetsc_setup_eps

MatCholFctrSym         3 1.0 2.1036e+00 1.0 0.00e+00 0.0 0.0e+00 0.0e+00 1.5e+01  0  0  0  0  0   6  0  0  0  2     0
MatCholFctrNum         7 1.0 2.5268e+01 1.0 0.00e+00 0.0 0.0e+00 0.0e+00 0.0e+00  1  0  0  0  0  70  0  0  0  0     0
MatCopy                4 1.0 6.6165e-01 1.0 0.00e+00 0.0 0.0e+00 0.0e+00 2.4e+01  0  0  0  0  0   2  0  0  0  4     0
MatConvert             3 1.0 1.2434e-02 4.0 0.00e+00 0.0 0.0e+00 0.0e+00 0.0e+00  0  0  0  0  0   0  0  0  0  0     0
MatScale              38 1.0 1.1008e-02 6.1 4.33e+06 7.9 0.0e+00 0.0e+00 0.0e+00  0  0  0  0  0   0100  0  0  0 56686
MatAssemblyBegin      61 1.0 5.3137e+001035.6 0.00e+00 0.0 0.0e+00 0.0e+00 1.4e+02  0  0  0  0  1   8  0  0  0 24     0
MatAssemblyEnd        61 1.0 2.5452e-01 1.2 0.00e+00 0.0 1.1e+05 1.1e+03 1.7e+02  0  0  0  0  1   1  0 17  1 28     0
MatGetRow           7488 1.0 5.4867e-01 6.6 0.00e+00 0.0 0.0e+00 0.0e+00 0.0e+00  0  0  0  0  0   1  0  0  0  0     0
MatGetSubMatrice      25 1.0 1.2863e+00 4.5 0.00e+00 0.0 5.1e+05 1.9e+04 5.0e+01  0  0  1  9  0   3  0 83 99  8     0
MatZeroEntries         4 1.0 2.6289e-03 5.6 0.00e+00 0.0 0.0e+00 0.0e+00 0.0e+00  0  0  0  0  0   0  0  0  0  0     0
MatAXPY               26 1.0 1.7382e+00 1.0 0.00e+00 0.0 4.6e+04 1.1e+03 1.1e+02  0  0  0  0  0   5  0  8  1 18     0
MatRedundantMat       25 1.0 4.7816e+00 1.1 0.00e+00 0.0 5.7e+05 1.7e+04 2.8e+02  0  0  1  9  1  13  0 92 99 47     0
MatMPIConcateSeq      25 1.0 4.2429e+00 1.2 0.00e+00 0.0 6.0e+04 1.1e+03 2.4e+02  0  0  0  0  1  11  0 10  1 39     0
VecSet                22 1.0 1.1347e-04 1.6 0.00e+00 0.0 0.0e+00 0.0e+00 0.0e+00  0  0  0  0  0   0  0  0  0  0     0
EPSSetUp               7 1.0 3.1586e+01 1.0 0.00e+00 0.0 2.1e+05 1.2e+04 4.4e+02  2  0  0  2  2  90  0 34 25 73     0
STSetUp               14 1.0 2.9788e+01 1.0 0.00e+00 0.0 4.6e+04 1.1e+03 1.6e+02  2  0  0  0  1  83  0  8  1 27     0
KSPSetUp               7 1.0 1.9116e-05 2.2 0.00e+00 0.0 0.0e+00 0.0e+00 0.0e+00  0  0  0  0  0   0  0  0  0  0     0
PCSetUp                7 1.0 2.7397e+01 1.0 0.00e+00 0.0 0.0e+00 0.0e+00 1.5e+01  1  0  0  0  0  76  0  0  0  2     0
BVCreate               4 1.0 1.1004e-03 1.2 0.00e+00 0.0 0.0e+00 0.0e+00 8.0e+00  0  0  0  0  0   0  0  0  0  1     0

--- Event Stage 6: qetsc_solve_eps

MatMult            48035 0.0 2.5868e+02 0.0 4.37e+10 0.0 3.4e+07 2.7e+03 0.0e+00  4 86 66 81  0   5 86 76 89  0 11278
MatSolve           18676 0.0 1.1154e+03 0.0 0.00e+00 0.0 1.1e+07 1.0e+03 8.7e+03 26  0 21  9 33  29  0 24 10 36     0
MatCholFctrNum        90 4.1 3.1642e+02 4.2 0.00e+00 0.0 0.0e+00 0.0e+00 0.0e+00  9  0  0  0  0  10  0  0  0  0     0
MatCopy               90 4.1 1.4864e+01 4.1 0.00e+00 0.0 0.0e+00 0.0e+00 2.9e+02  0  0  0  0  1   0  0  0  0  1     0
MatAssemblyBegin     180 4.1 3.1238e+015089.6 0.00e+00 0.0 0.0e+00 0.0e+00 3.8e+02  0  0  0  0  1   0  0  0  0  2     0
MatAssemblyEnd       180 4.1 1.2066e+00 4.1 0.00e+00 0.0 3.2e+05 1.1e+03 5.7e+02  0  0  1  0  2   0  0  1  0  2     0
MatGetRow         112320 4.1 8.2482e+0027.3 0.00e+00 0.0 0.0e+00 0.0e+00 0.0e+00  0  0  0  0  0   0  0  0  0  0     0
MatZeroEntries        90 4.1 3.2672e-0210.2 0.00e+00 0.0 0.0e+00 0.0e+00 0.0e+00  0  0  0  0  0   0  0  0  0  0     0
MatAXPY               90 4.1 2.2117e+01 4.1 0.00e+00 0.0 3.2e+05 1.1e+03 7.6e+02  1  0  1  0  3   1  0  1  0  3     0
VecDot              2847 0.0 6.8885e+00 0.0 2.37e+06 0.0 0.0e+00 0.0e+00 1.4e+03  0  0  0  0  5   0  0  0  0  6    43
VecCopy             3283 0.0 7.6654e-03 0.0 0.00e+00 0.0 0.0e+00 0.0e+00 0.0e+00  0  0  0  0  0   0  0  0  0  0     0
VecSet            1628717403.2 5.4718e-018550.3 0.00e+00 0.0 0.0e+00 0.0e+00 0.0e+00  0  0  0  0  0   0  0  0  0  0     0
VecScatterBegin    85387 0.0 5.6585e+01 0.0 0.00e+00 0.0 4.5e+07 2.3e+03 8.6e+03  1  0 86 90 33   1  0 99100 35     0
VecScatterEnd      66711 0.0 1.1914e+02 0.0 0.00e+00 0.0 0.0e+00 0.0e+00 0.0e+00  1  0  0  0  0   1  0  0  0  0     0
VecSetRandom          24 0.0 6.0868e-03 0.0 0.00e+00 0.0 0.0e+00 0.0e+00 0.0e+00  0  0  0  0  0   0  0  0  0  0     0
EPSSetUp              22 1.0 9.1009e+01 1.0 0.00e+00 0.0 1.5e+05 1.1e+03 7.6e+02  5  0  0  0  3   5  0  0  0  3     0
EPSSolve              22 1.0 1.7111e+03 1.0 4.81e+10 0.0 4.5e+07 2.3e+03 2.4e+04 90100 87 90 92 100100100100100  1986
STSetUp               37 1.0 5.9519e+01 1.1 0.00e+00 0.0 9.9e+04 1.1e+03 3.3e+02  3  0  0  0  1   3  0  0  0  1     0
STApply            18676 0.0 1.1737e+03 0.0 1.70e+10 0.0 2.4e+07 1.9e+03 8.7e+03 28 33 46 40 33  31 33 53 45 36   957
STMatSolve         18676 0.0 1.1183e+03 0.0 0.00e+00 0.0 1.1e+07 1.0e+03 8.7e+03 26  0 21  9 33  30  0 24 10 36     0
KSPSetUp              90 4.1 1.6336e-04 6.4 0.00e+00 0.0 0.0e+00 0.0e+00 0.0e+00  0  0  0  0  0   0  0  0  0  0     0
KSPSolve           18676 0.0 1.1162e+03 0.0 0.00e+00 0.0 1.1e+07 1.0e+03 8.7e+03 26  0 21  9 33  29  0 24 10 36     0
PCSetUp               90 4.1 3.1643e+02 4.2 0.00e+00 0.0 0.0e+00 0.0e+00 0.0e+00  9  0  0  0  0  10  0  0  0  0     0
PCApply            18676 0.0 1.1155e+03 0.0 0.00e+00 0.0 1.1e+07 1.0e+03 8.7e+03 26  0 21  9 33  29  0 24 10 36     0
BVCreate             11723.4 4.9221e-0249.6 0.00e+00 0.0 0.0e+00 0.0e+00 4.0e+02  0  0  0  0  2   0  0  0  0  2     0
BVCopy              3283 0.0 1.7432e-02 0.0 0.00e+00 0.0 0.0e+00 0.0e+00 0.0e+00  0  0  0  0  0   0  0  0  0  0     0
BVMultVec          26557 0.0 2.2602e+00 0.0 1.74e+09 0.0 0.0e+00 0.0e+00 0.0e+00  0  5  0  0  0   0  5  0  0  0 81988
BVMultInPlace        480 0.0 5.3920e-01 0.0 9.25e+08 0.0 0.0e+00 0.0e+00 0.0e+00  0  3  0  0  0   0  3  0  0  0 196672
BVDotVec           26557 0.0 1.4641e+02 0.0 2.59e+10 0.0 1.9e+07 2.7e+03 1.2e+04  4 53 36 44 47   4 53 42 49 51 12277
BVOrthogonalizeV   15874 0.0 1.4894e+02 0.0 2.77e+10 0.0 1.9e+07 2.7e+03 1.2e+04  4 58 36 44 47   4 58 42 49 51 13313
BVScale            18676 0.0 1.5504e-01 0.0 7.77e+06 0.0 0.0e+00 0.0e+00 0.0e+00  0  0  0  0  0   0  0  0  0  0  5887
BVNormVec           2847 0.0 1.5449e+01 0.0 2.59e+09 0.0 2.2e+06 2.7e+03 1.4e+03  0  5  4  5  5   0  5  5  6  6 11963
BVSetRandom           24 0.0 6.3329e-03 0.0 0.00e+00 0.0 0.0e+00 0.0e+00 0.0e+00  0  0  0  0  0   0  0  0  0  0     0
DSSolve              414 0.0 4.3315e+00 0.0 0.00e+00 0.0 0.0e+00 0.0e+00 0.0e+00  0  0  0  0  0   0  0  0  0  0     0
DSVectors          26123 0.0 6.1101e-02 0.0 0.00e+00 0.0 0.0e+00 0.0e+00 0.0e+00  0  0  0  0  0   0  0  0  0  0     0
DSOther              480 0.0 1.2224e-01 0.0 0.00e+00 0.0 0.0e+00 0.0e+00 0.0e+00  0  0  0  0  0   0  0  0  0  0     0

--- Event Stage 7: qetsc_eigvals


--- Event Stage 8: qetsc_density

VecCopy            22528 1.0 8.2611e-02 1.6 0.00e+00 0.0 0.0e+00 0.0e+00 0.0e+00  0  0  0  0  0   0  0  0  0  0     0
VecSet                 3 1.0 5.5065e-05 2.3 0.00e+00 0.0 0.0e+00 0.0e+00 0.0e+00  0  0  0  0  0   0  0  0  0  0     0
VecScatterBegin    45056 1.0 9.2260e+00 1.0 0.00e+00 0.0 5.7e+06 2.1e+02 2.3e+04  0  0 11  1 86  14  0 94 98 91     0
VecScatterEnd      22528 1.0 2.2305e+00 1.1 0.00e+00 0.0 0.0e+00 0.0e+00 0.0e+00  0  0  0  0  0   3  0  0  0  0     0
BVCopy             22528 1.0 1.9056e-01 1.2 0.00e+00 0.0 0.0e+00 0.0e+00 0.0e+00  0  0  0  0  0   0  0  0  0  0     0

--- Event Stage 9: Unknown


--- Event Stage 10: siesta_misc


--- Event Stage 11: siesta_move


--- Event Stage 12: siesta_analysis


--- Event Stage 13: qetsc_clean


--- Event Stage 14: siesta_end

------------------------------------------------------------------------------------------------------------------------

Memory usage is given in bytes:

Object Type          Creations   Destructions     Memory  Descendants' Mem.
Reports information only for process 0.

--- Event Stage 0: Main Stage


--- Event Stage 1: siesta_init


--- Event Stage 2: siesta_forces


--- Event Stage 3: siesta_solve


--- Event Stage 4: siesta2qetsc

              Matrix    27              0            0     0.
              Vector    57              3         4944     0.
      Vector Scatter    12              0            0     0.
           Index Set    12             12        63120     0.

--- Event Stage 5: qetsc_setup_eps

              Matrix    69             21     19957320     0.
              Vector   221             89      1463088     0.
      Vector Scatter    38             11        11792     0.
           Index Set   141            120       941952     0.
          EPS Solver     6              0            0     0.
  Spectral Transform     6              0            0     0.
       Krylov Solver     6              0            0     0.
      Preconditioner     6              0            0     0.
       Basis Vectors    13              4         4224     0.
         PetscRandom     3              0            0     0.
              Region     6              0            0     0.
       Direct Solver     6              0            0     0.

--- Event Stage 6: qetsc_solve_eps

              Matrix    66             66     63267864     0.
              Vector   291            291      3168480     0.
      Vector Scatter    44             44        47168     0.
           Index Set    88             88      1234816     0.
       Basis Vectors    22             22        23232     0.

--- Event Stage 7: qetsc_eigvals


--- Event Stage 8: qetsc_density

              Vector    25             22       109472     0.
      Vector Scatter   355            352       381920     0.
           Index Set   707            707       627504     0.

--- Event Stage 9: Unknown


--- Event Stage 10: siesta_misc


--- Event Stage 11: siesta_move

              Matrix     0             75     71900798     0.
              Vector     0            189      3011160     0.
      Vector Scatter     0             42        42528     0.
           Index Set     0             21        16464     0.
          EPS Solver     0              6       157336     0.
  Spectral Transform     0              6         4896     0.
       Krylov Solver     0              6         7008     0.
      Preconditioner     0              6         5856     0.
       Basis Vectors     0              9         9504     0.
         PetscRandom     0              3         1914     0.
              Region     0              6         3936     0.
       Direct Solver     0              6       329976     0.

--- Event Stage 12: siesta_analysis


--- Event Stage 13: qetsc_clean


--- Event Stage 14: siesta_end

              Viewer     1              0            0     0.
========================================================================================================================
Average time to get PetscTime(): 1.24437e-07
Average time for MPI_Barrier(): 3.0935e-06
Average time for zero size MPI_Send(): 1.12843e-05
#PETSc Option Table entries:
-eps_interval -2.3,0.
-eps_krylovschur_detect_zeros 0
-eps_krylovschur_partitions 16
-ioptbin 7
-ioptdensity 0
-ioptinertia 1
-ioptleft 2
-ioptwrite 1
-log_view
-mat_mumps_cntl_3 1e-12
-mat_mumps_icntl_13 1
-mat_mumps_icntl_23 0
-mat_mumps_icntl_24 1
-mat_mumps_icntl_7 5
-mat_type mpisbaij
#End of PETSc Option Table entries
Compiled with FORTRAN kernels
Compiled with full precision matrices (default)
sizeof(short) 2 sizeof(int) 4 sizeof(long) 8 sizeof(void*) 8 sizeof(PetscScalar) 8 sizeof(PetscInt) 4
Configure options: --known-has-attribute-aligned=1 --download-chaco=0 --download-cmake=0 --download-hypre=0 --download-metis=1 --download-mumps=1 --download-parmetis=1 --download-plapack=0 --download-prometheus=0 --download-ptscotch=1 --download-spai=0 --download-spooles=0 --download-superlu=0 --download-superlu_dist=0 --download-triangle=0 --known-bits-per-byte=8 --known-level1-dcache-assoc=0 --known-level1-dcache-linesize=32 --known-level1-dcache-size=32768 --known-memcmp-ok=1 --known-mpi-c-double-complex=1 --known-mpi-int64_t=1 --known-mpi-long-double=1 --known-mpi-shared-libraries=0 --known-sdot-returns-double=0 --known-sizeof-MPI_Comm=4 --known-sizeof-MPI_Fint=4 --known-sizeof-char=1 --known-sizeof-double=8 --known-sizeof-float=4 --known-sizeof-int=4 --known-sizeof-long-long=8 --known-sizeof-long=8 --known-sizeof-short=2 --known-sizeof-size_t=8 --known-sizeof-void-p=8 --known-snrm2-returns-double=0 --with-batch=1 --with-blacs-include=/soft/libraries/alcf/current/xl/SCALAPACK/ --with-blacs-lib=/soft/libraries/alcf/current/xl/SCALAPACK/lib/libscalapack.a --with-blas-lapack-lib="-L/soft/libraries/alcf/current/xl/LAPACK/lib -llapack -L/soft/libraries/alcf/current/xl/BLAS/lib -lblas" --with-cc=mpixlc_r --with-clib-autodetect=0 --with-cxx=mpixlcxx_r --with-cxxlib-autodetect=0 --with-debugging=0 --with-fc="mpixlf77_r -qnosave" --with-fortran-kernels=1 --with-fortranlib-autodetect=0 --with-is-color-value-type=short --with-scalapack-include=/soft/libraries/alcf/current/xl/SCALAPACK/ --with-scalapack-lib=/soft/libraries/alcf/current/xl/SCALAPACK/lib/libscalapack.a --with-shared-libraries=0 --with-x=0 -COPTFLAGS=" -g -O3 -qhot=level=0 -qsimd=auto -qmaxmem=-1 -qstrict -qstrict_induction" -CXXOPTFLAGS="  -g -O3 -qhot=level=0 -qsimd=auto -qmaxmem=-1 -qstrict -qstrict_induction" -FOPTFLAGS=" -g -O3 -qhot=level=0 -qsimd=auto -qmaxmem=-1 -qstrict -qstrict_induction" LIBS="-lmpichcxx-gcc -lmpichf77-gcc -L/soft/compilers/ibmcmp-feb2015/vacpp/bg/12.1/bglib64 -libmc++ -L/soft/compilers/ibmcmp-feb2015/xlf/bg/14.1/bglib64 -lxlf90_r -lxlomp_ser -lxlfmath" PETSC_ARCH=arch-xl
-----------------------------------------
Libraries compiled on Sat Aug 20 04:19:47 2016 on vestalac2 
Machine characteristics: Linux-2.6.32-573.18.1.el6.ppc64-ppc64-with-redhat-6.7-Santiago
Using PETSc directory: /home/keceli/scratch2/petsc
Using PETSc arch: arch-xl
-----------------------------------------

Using C compiler: mpixlc_r   -g -O3 -qhot=level=0 -qsimd=auto -qmaxmem=-1 -qstrict -qstrict_induction  ${COPTFLAGS} ${CFLAGS}
Using Fortran compiler: mpixlf77_r -qnosave  -g -O3 -qhot=level=0 -qsimd=auto -qmaxmem=-1 -qstrict -qstrict_induction   ${FOPTFLAGS} ${FFLAGS} 
-----------------------------------------

Using include paths: -I/home/keceli/scratch2/petsc/arch-xl/include -I/home/keceli/scratch2/petsc/include -I/home/keceli/scratch2/petsc/include -I/home/keceli/scratch2/petsc/arch-xl/include -I/bgsys/drivers/V1R2M4/ppc64/comm/include -I/bgsys/drivers/V1R2M4/ppc64/comm/lib/xl -I/bgsys/drivers/V1R2M4/ppc64 -I/bgsys/drivers/V1R2M4/ppc64/comm/sys/include -I/bgsys/drivers/V1R2M4/ppc64/spi/include -I/bgsys/drivers/V1R2M4/ppc64/spi/include/kernel/cnk
-----------------------------------------

Using C linker: mpixlc_r
Using Fortran linker: mpixlf77_r -qnosave
Using libraries: -Wl,-rpath,/home/keceli/scratch2/petsc/arch-xl/lib -L/home/keceli/scratch2/petsc/arch-xl/lib -lpetsc -Wl,-rpath,/home/keceli/scratch2/petsc/arch-xl/lib -L/home/keceli/scratch2/petsc/arch-xl/lib -lcmumps -ldmumps -lsmumps -lzmumps -lmumps_common -lpord -Wl,-rpath,/soft/libraries/alcf/current/xl/SCALAPACK/lib -L/soft/libraries/alcf/current/xl/SCALAPACK/lib -lscalapack -L/soft/libraries/alcf/current/xl/LAPACK/lib -llapack -L/soft/libraries/alcf/current/xl/BLAS/lib -lblas -lparmetis -lmetis -lptesmumps -lptscotch -lptscotcherr -lscotch -lscotcherr -lrt -lm -lpthread -ldl -lmpichcxx-gcc -lmpichf77-gcc -L/soft/compilers/ibmcmp-feb2015/vacpp/bg/12.1/bglib64 -libmc++ -L/soft/compilers/ibmcmp-feb2015/xlf/bg/14.1/bglib64 -lxlf90_r -lxlomp_ser -lxlfmath
-----------------------------------------

