s.runSiesta: Submission time = 20s48m01h
s.runSiesta: Job name = q32_b312_g0_c32_s64_p64_3
s.runSiesta: Number of ranks = 64
s.runSiesta: Number of slices = 64
20s48m01h
-ioptbin 3
-ioptinertia 1
-ioptleft 2
-isglobal 0
-roptleft -2.2
-roptright -0.2
-writeeigs 1
-roptbuffer 0.05
-roptdiff 0.05
# A chain of identical atoms (instead of an xyz file) can be specified with the following options
#-N 10 # Number of atoms
#-Z 8 # Atomic number
#-c 32 # Maximum number of interactions of an atom

# A petsc matrix (binary) can be given
#-method file
#-fA '/Volumes/s/matrices/petscbinary/graphene_xxs_A'
#-fB '/Volumes/s/matrices/petscbinary/graphene_xxs_B'
#-scfthresh 1.e-3

#PETSc options

-log_view
#-mat_mumps_icntl_13 1 #turn off scaLAPACK for matrix inertia
#-mat_mumps_icntl_24 1 #null pivot row detection for matrix inertia
#-mat_mumps_icntl_23 0
-mat_mumps_icntl_28 1
#-mat_mumps_icntl_28 2
#-mat_mumps_icntl_29 1 # ptscotch
#-mat_mumps_icntl_29 2 # parmetis
#-malloc_info
#-mat_view ::ascii_info
#-mat_getrow_uppertriangular 1
#-st_type sinvert
#-st_ksp_type preonly
#-st_pc_type cholesky
#-st_pc_factor_mat_solver_package mumps
-st_pc_factor_mat_solver_package mkl_pardiso
#SLEPc options
#-eps_view
#-eps_view_values
#-eps_krylovschur_partitions 1
#-eps_krylovschur_nev 120
-eps_interval -2.2,-0.2
#-eps_tol  1.e-8
-eps_krylovschur_detect_zeros 0
#-eps_purify 1
SystemName liquid_H2O_32
SystemLabel H2O_32

UseTreeTimer .true.
DM.MixingWeight 0.3
DM.NumberPulay 3

SolutionMethod  slepc1 #slepc0 for the older method
#SolutionMethod diagon
#BlockSize 91
WriteDM .false.
WriteDM.NetCDF .false.
WriteDMHS.NetCDF .false.
LongOutput .false.
#MaxSCFIterations 1
##################################################
# Do not change below this line                  #
##################################################

%block SuperCell
1 0 0
0 1 0
0 0 1
%endblock SuperCell

NumberOfAtoms 96
NumberOfSpecies 2
#MaxSCFIterations 1

xc.functional GGA
xc.authors PBE 
MeshCutoff 150.0 Ry

%block ChemicalSpeciesLabel
  1   8  O
  2   1  H  
%endblock ChemicalSpeciesLabel

#%block AtomicMass
#  2   2.0
#%endblock AtomicMass

%block PAO.Basis # qz+tp+dp'
O 4
n=2 0 4 E 50.0 8.0
 10.0 5.0 3.5 2.0
n=2 1 4 E 10.0 8.0
 10.0 5.0 3.5 2.0
n=3 2 3 E 40.0 9.0 Q 6.0 0.00
 10.0 2.0 3.0
n=4 3 2 E 50.0 9.0 Q 17.0 0.40
 10.0 1.7
H 3
n=1 0 4 E 50.0 9.0
 10.0 5.0 3.5 2.0
n=2 1 3 E 50.0 9.0 Q 3.5 0.00
 10.0 2.0 4.0
n=3 2 2 E 50.0 9.0 Q 16.0 0.80
 10.0 2.0
%endblock PAO.Basis

LatticeConstant 9.856391407574419 Ang
%block LatticeVectors   
  1.0  0.0  0.0
  0.0  1.0  0.0
  0.0  0.0  1.0
%endblock LatticeVectors   

AtomicCoordinatesFormat NotScaledCartesianAng
%block AtomicCoordinatesAndAtomicSpecies < coord32.data

Siesta Version: siesta-trunk-492
Architecture  : x86_64-unknown-linux-gnu--unknown
Compiler flags: mpif90 -g -O3 -I/home/keceli/lib/petsc/include -I/home/keceli/lib/petsc/arch--gccopt/include -I/home/keceli/lib/slepc/arch-gccopt/include -I/home/keceli/lib/slepc/include -I/soft/mkl/11.1.0.080/mkl/include -I/blues/gpfs/home/software/spack/opt/spack/linux-x86_64/gcc-5.3.0/mpich-3.2-wraqufukmp7yzyl6a644pnmda7wkg7w7/include
PP flags      : -DMPI -DMPI_TIMING -DFC_HAVE_FLUSH -DFC_HAVE_ABORT 
PARALLEL version

* Running on   64 nodes in parallel
>> Start of run:  25-SEP-2016   1:48:24

                           ***********************       
                           *  WELCOME TO SIESTA  *       
                           ***********************       
WARNING: Siesta is reading its input from file INPUT_DEBUG

reinit: -----------------------------------------------------------------------
reinit: System Name: liquid_H2O_32
reinit: -----------------------------------------------------------------------
reinit: System Label: H2O_32                                                      
reinit: -----------------------------------------------------------------------

initatom: Reading input for the pseudopotentials and atomic orbitals ----------
Species number:   1 Atomic number:    8 Label: O
Species number:   2 Atomic number:    1 Label: H

Ground state valence configuration:   2s02  2p04
Reading pseudopotential information in formatted form from O.psf

Valence configuration for pseudopotential generation:
2s( 2.00) rc: 1.14
2p( 4.00) rc: 1.14
3d( 0.00) rc: 1.14
4f( 0.00) rc: 1.14
Ground state valence configuration:   1s01
Reading pseudopotential information in formatted form from H.psf

Valence configuration for pseudopotential generation:
1s( 0.60) rc: 1.25
2p( 0.00) rc: 1.25
3d( 0.00) rc: 1.25
4f( 0.00) rc: 1.25
For O, standard SIESTA heuristics set lmxkb to 4
 (one more than the basis l, including polarization orbitals).
Use PS.lmax or PS.KBprojectors blocks to override.
Warning: For O lmxkb would have been set to 4
Setting it to maximum value of 3 (f projector)
For H, standard SIESTA heuristics set lmxkb to 3
 (one more than the basis l, including polarization orbitals).
Use PS.lmax or PS.KBprojectors blocks to override.

<basis_specs>
===============================================================================
O                    Z=   8    Mass=  16.000        Charge= 0.17977+309
Lmxo=3 Lmxkb= 3    BasisType=split      Semic=F
L=0  Nsemic=0  Cnfigmx=2
          n=1  nzeta=4  polorb=0
            splnorm:   0.15000    
               vcte:    50.000    
               rinn:    8.0000    
               qcoe:    0.0000    
               qyuk:    0.0000    
               qwid:   0.10000E-01
                rcs:    10.000      5.0000      3.5000      2.0000    
            lambdas:    1.0000      1.0000      1.0000      1.0000    
L=1  Nsemic=0  Cnfigmx=2
          n=1  nzeta=4  polorb=0
            splnorm:   0.15000    
               vcte:    10.000    
               rinn:    8.0000    
               qcoe:    0.0000    
               qyuk:    0.0000    
               qwid:   0.10000E-01
                rcs:    10.000      5.0000      3.5000      2.0000    
            lambdas:    1.0000      1.0000      1.0000      1.0000    
L=2  Nsemic=0  Cnfigmx=3
          n=1  nzeta=3  polorb=0
            splnorm:   0.15000    
               vcte:    40.000    
               rinn:    9.0000    
               qcoe:    6.0000    
               qyuk:    0.0000    
               qwid:   0.10000E-01
                rcs:    10.000      2.0000      3.0000    
            lambdas:    1.0000      1.0000      1.0000    
L=3  Nsemic=0  Cnfigmx=4
          n=1  nzeta=2  polorb=0
            splnorm:   0.15000    
               vcte:    50.000    
               rinn:    9.0000    
               qcoe:    17.000    
               qyuk:   0.40000    
               qwid:   0.10000E-01
                rcs:    10.000      1.7000    
            lambdas:    1.0000      1.0000    
-------------------------------------------------------------------------------
L=0  Nkbl=1  erefs: 0.17977+309
L=1  Nkbl=1  erefs: 0.17977+309
L=2  Nkbl=1  erefs: 0.17977+309
L=3  Nkbl=1  erefs: 0.17977+309
===============================================================================
</basis_specs>

atom: Called for O                     (Z =   8)

read_vps: Pseudopotential generation method:
read_vps: ATM3      Troullier-Martins                       
Total valence charge:    6.00000

read_vps: Pseudopotential includes a core correction:
read_vps: Pseudo-core for xc-correction

xc_check: Exchange-correlation functional:
xc_check: GGA Perdew, Burke & Ernzerhof 1996
V l=0 = -2*Zval/r beyond r=  1.1278
V l=1 = -2*Zval/r beyond r=  1.1278
V l=2 = -2*Zval/r beyond r=  1.1278
V l=3 = -2*Zval/r beyond r=  1.1278
All V_l potentials equal beyond r=  1.1278
This should be close to max(r_c) in ps generation
All pots = -2*Zval/r beyond r=  1.1278

VLOCAL1: 99.0% of the norm of Vloc inside     34.126 Ry
VLOCAL1: 99.9% of the norm of Vloc inside     77.774 Ry
atom: Maximum radius for 4*pi*r*r*local-pseudopot. charge    1.37759
atom: Maximum radius for r*vlocal+2*Zval:    1.18566
GHOST: No ghost state for L =  0
GHOST: No ghost state for L =  1
GHOST: No ghost state for L =  2
GHOST: No ghost state for L =  3

KBgen: Kleinman-Bylander projectors: 
   l= 0   rc=  1.262145   el= -1.757696   Ekb=  9.253654   kbcos=  0.328369
   l= 1   rc=  1.262145   el= -0.664256   Ekb= -7.897175   kbcos= -0.393093
   l= 2   rc=  1.343567   el=  0.002031   Ekb= -1.922379   kbcos= -0.003517
   l= 3   rc=  1.394919   el=  0.003153   Ekb= -0.738278   kbcos= -0.000358

KBgen: Total number of  Kleinman-Bylander projectors:   16
atom: -------------------------------------------------------------------------

atom: SANKEY-TYPE ORBITALS:
atom: Selected multiple-zeta basis: split     

SPLIT: Orbitals with angular momentum L= 0

SPLIT: Basis orbitals for state 2s

   izeta = 1
                 lambda =    1.000000
                     rc =   10.181049
                 energy =   -1.757767
                kinetic =    1.546187
    potential(screened) =   -3.303954
       potential(ionic) =  -11.175858

   izeta = 2
                 rmatch =    5.055603
              splitnorm =    0.001043
                 energy =   -1.756217
* WARNING: effective split_norm is quite small. Orbitals will be very similar.
                kinetic =    1.590301
    potential(screened) =   -3.346518
       potential(ionic) =  -11.267994

   izeta = 3
                 rmatch =    3.562532
              splitnorm =    0.023118
                 energy =   -1.724097
* WARNING: effective split_norm is quite small. Orbitals will be very similar.
                kinetic =    1.812689
    potential(screened) =   -3.536786
       potential(ionic) =  -11.661476

   izeta = 4
                 rmatch =    2.004519
              splitnorm =    0.368983
                 energy =   -0.954778
                kinetic =    3.368396
    potential(screened) =   -4.323174
       potential(ionic) =  -13.178438

SPLIT: Orbitals with angular momentum L= 1

SPLIT: Basis orbitals for state 2p

   izeta = 1
                 lambda =    1.000000
                     rc =   10.181049
                 energy =   -0.664314
                kinetic =    4.714332
    potential(screened) =   -5.378647
       potential(ionic) =  -12.967201

   izeta = 2
                 rmatch =    5.055603
              splitnorm =    0.008251
                 energy =   -0.656950
* WARNING: effective split_norm is quite small. Orbitals will be very similar.
                kinetic =    4.990409
    potential(screened) =   -5.647359
       potential(ionic) =  -13.410842

   izeta = 3
                 rmatch =    3.562532
              splitnorm =    0.055493
                 energy =   -0.601809
                kinetic =    5.759592
    potential(screened) =   -6.361401
       potential(ionic) =  -14.486952

   izeta = 4
                 rmatch =    2.004519
              splitnorm =    0.336744
                 energy =    0.137909
                kinetic =    9.626817
    potential(screened) =   -9.488908
       potential(ionic) =  -18.577571

SPLIT: Orbitals with angular momentum L= 2

SPLIT: Basis orbitals for state 3d
Charge confinement: Q:     6.0000

   izeta = 1
                 lambda =    1.000000
                     rc =   10.181049
                 energy =    2.007653
                kinetic =    3.859620
    potential(screened) =   -1.851967
       potential(ionic) =   -7.803212

   izeta = 2
                 rmatch =    2.004519
              splitnorm =    0.637208
                 energy =    6.650039
                kinetic =   11.560126
    potential(screened) =   -4.910087
       potential(ionic) =  -13.161977

   izeta = 3
                 rmatch =    2.990543
              splitnorm =    0.263953
                 energy =    3.559882
                kinetic =    6.528543
    potential(screened) =   -2.968661
       potential(ionic) =  -10.107962

SPLIT: Orbitals with angular momentum L= 3

SPLIT: Basis orbitals for state 4f
Charge confinement: Q:    17.0000

   izeta = 1
                 lambda =    1.000000
                     rc =   10.181049
                 energy =    4.609453
                kinetic =    6.179676
    potential(screened) =   -1.570223
       potential(ionic) =   -7.410991

   izeta = 2
                 rmatch =    1.725262
              splitnorm =    0.752552
                 energy =   15.780374
                kinetic =   20.445907
    potential(screened) =   -4.665533
       potential(ionic) =  -12.986389
atom: Total number of Sankey-type orbitals: 45

atm_pop: Valence configuration (for local Pseudopot. screening):
 2s( 2.00)                                                            
 2p( 4.00)                                                            
 3d( 0.00)                                                            
 4f( 0.00)                                                            
Vna: chval, zval:    6.00000   6.00000

Vna:  Cut-off radius for the neutral-atom potential:  10.181049
comcore: Pseudo-core radius Rcore=  1.377587

atom: _________________________________________________________________________

<basis_specs>
===============================================================================
H                    Z=   1    Mass=  1.0100        Charge= 0.17977+309
Lmxo=2 Lmxkb= 3    BasisType=split      Semic=F
L=0  Nsemic=0  Cnfigmx=1
          n=1  nzeta=4  polorb=0
            splnorm:   0.15000    
               vcte:    50.000    
               rinn:    9.0000    
               qcoe:    0.0000    
               qyuk:    0.0000    
               qwid:   0.10000E-01
                rcs:    10.000      5.0000      3.5000      2.0000    
            lambdas:    1.0000      1.0000      1.0000      1.0000    
L=1  Nsemic=0  Cnfigmx=2
          n=1  nzeta=3  polorb=0
            splnorm:   0.15000    
               vcte:    50.000    
               rinn:    9.0000    
               qcoe:    3.5000    
               qyuk:    0.0000    
               qwid:   0.10000E-01
                rcs:    10.000      2.0000      4.0000    
            lambdas:    1.0000      1.0000      1.0000    
L=2  Nsemic=0  Cnfigmx=3
          n=1  nzeta=2  polorb=0
            splnorm:   0.15000    
               vcte:    50.000    
               rinn:    9.0000    
               qcoe:    16.000    
               qyuk:   0.80000    
               qwid:   0.10000E-01
                rcs:    10.000      2.0000    
            lambdas:    1.0000      1.0000    
-------------------------------------------------------------------------------
L=0  Nkbl=1  erefs: 0.17977+309
L=1  Nkbl=1  erefs: 0.17977+309
L=2  Nkbl=1  erefs: 0.17977+309
L=3  Nkbl=1  erefs: 0.17977+309
===============================================================================
</basis_specs>

atom: Called for H                     (Z =   1)

read_vps: Pseudopotential generation method:
read_vps: ATM 3.2.2 Troullier-Martins                       
Total valence charge:    0.60000

atom: Pseudopotential generated from an ionic configuration
atom: with net charge 0.40

xc_check: Exchange-correlation functional:
xc_check: GGA Perdew, Burke & Ernzerhof 1996
xc_check: WARNING: Pseudopotential generated with GGA revPBE functional
V l=0 = -2*Zval/r beyond r=  1.2343
V l=1 = -2*Zval/r beyond r=  1.2189
V l=2 = -2*Zval/r beyond r=  1.2189
V l=3 = -2*Zval/r beyond r=  1.2038
All V_l potentials equal beyond r=  1.2343
This should be close to max(r_c) in ps generation
All pots = -2*Zval/r beyond r=  1.2343

VLOCAL1: 99.0% of the norm of Vloc inside     28.493 Ry
VLOCAL1: 99.9% of the norm of Vloc inside     64.935 Ry
atom: Maximum radius for 4*pi*r*r*local-pseudopot. charge    1.45251
atom: Maximum radius for r*vlocal+2*Zval:    1.21892
GHOST: No ghost state for L =  0
GHOST: No ghost state for L =  1
GHOST: No ghost state for L =  2
GHOST: No ghost state for L =  3

KBgen: Kleinman-Bylander projectors: 
   l= 0   rc=  1.364359   el= -0.835481   Ekb= -2.050473   kbcos= -0.374935
   l= 1   rc=  1.434438   el= -0.083696   Ekb= -0.439790   kbcos= -0.040392
   l= 2   rc=  1.470814   el= -0.018512   Ekb= -0.135383   kbcos= -0.004767
   l= 3   rc=  1.508111   el= -0.010355   Ekb= -0.058408   kbcos= -0.000784

KBgen: Total number of  Kleinman-Bylander projectors:   16
atom: -------------------------------------------------------------------------

atom: SANKEY-TYPE ORBITALS:
atom: Selected multiple-zeta basis: split     

atom: basis set generated from the ionic configuration used
atom: to generate the pseudopotential

SPLIT: Orbitals with angular momentum L= 0

SPLIT: Basis orbitals for state 1s

   izeta = 1
                 lambda =    1.000000
                     rc =    9.971704
                 energy =   -0.835496
                kinetic =    1.039073
    potential(screened) =   -1.874569
       potential(ionic) =   -2.037700

   izeta = 2
                 rmatch =    5.075940
              splitnorm =    0.029735
                 energy =   -0.816789
* WARNING: effective split_norm is quite small. Orbitals will be very similar.
                kinetic =    1.252128
    potential(screened) =   -2.068916
       potential(ionic) =   -2.226196

   izeta = 3
                 rmatch =    3.487864
              splitnorm =    0.176430
                 energy =   -0.691872
                kinetic =    1.782572
    potential(screened) =   -2.474444
       potential(ionic) =   -2.615176

   izeta = 4
                 rmatch =    2.011274
              splitnorm =    0.598000
                 energy =    0.301433
                kinetic =    3.884637
    potential(screened) =   -3.583203
       potential(ionic) =   -3.672637

SPLIT: Orbitals with angular momentum L= 1

SPLIT: Basis orbitals for state 2p
Charge confinement: Q:     3.5000

   izeta = 1
                 lambda =    1.000000
                     rc =    9.971704
                 energy =    0.711778
                kinetic =    1.888566
    potential(screened) =   -1.176788
       potential(ionic) =   -1.368090

   izeta = 2
                 rmatch =    2.011274
              splitnorm =    0.691729
                 energy =    4.504307
                kinetic =    6.792143
    potential(screened) =   -2.287836
       potential(ionic) =   -2.425880

   izeta = 3
                 rmatch =    4.052721
              splitnorm =    0.089367
                 energy =    1.150580
                kinetic =    2.529067
    potential(screened) =   -1.378487
       potential(ionic) =   -1.566684

SPLIT: Orbitals with angular momentum L= 2

SPLIT: Basis orbitals for state 3d
Charge confinement: Q:    16.0000

   izeta = 1
                 lambda =    1.000000
                     rc =    9.971704
                 energy =    3.555650
                kinetic =    4.803510
    potential(screened) =   -1.247860
       potential(ionic) =   -1.438034

   izeta = 2
                 rmatch =    2.011274
              splitnorm =    0.525433
                 energy =    9.861824
                kinetic =   11.896576
    potential(screened) =   -2.034751
       potential(ionic) =   -2.186933
atom: Total number of Sankey-type orbitals: 23

atm_pop: Valence configuration (for local Pseudopot. screening):
 1s( 1.00)                                                            
 2p( 0.00)                                                            
 3d( 0.00)                                                            
Vna: chval, zval:    1.00000   1.00000

Vna:  Cut-off radius for the neutral-atom potential:   9.971704

atom: _________________________________________________________________________

prinput: Basis input ----------------------------------------------------------

PAO.BasisType split     

%block ChemicalSpeciesLabel
    1    8 O                       # Species index, atomic number, species label
    2    1 H                       # Species index, atomic number, species label
%endblock ChemicalSpeciesLabel

%block PAO.Basis                 # Define Basis set
O                     4                    # Species label, number of l-shells
 n=2   0   4                         # n, l, Nzeta 
  10.181      5.056      3.563      2.005   
   1.000      1.000      1.000      1.000   
 n=2   1   4                         # n, l, Nzeta 
  10.181      5.056      3.563      2.005   
   1.000      1.000      1.000      1.000   
 n=3   2   3                         # n, l, Nzeta 
  10.181      2.005      2.991   
   1.000      1.000      1.000   
 n=4   3   2                         # n, l, Nzeta 
  10.181      1.725   
   1.000      1.000   
H                     3   0.400            # Label, l-shells, ionic net charge
 n=1   0   4                         # n, l, Nzeta 
   9.972      5.076      3.488      2.011   
   1.000      1.000      1.000      1.000   
 n=2   1   3                         # n, l, Nzeta 
   9.972      2.011      4.053   
   1.000      1.000      1.000   
 n=3   2   2                         # n, l, Nzeta 
   9.972      2.011   
   1.000      1.000   
%endblock PAO.Basis

prinput: ----------------------------------------------------------------------

coor:   Atomic-coordinates input format  =     Cartesian coordinates
coor:                                          (in Angstroms)

siesta: Atomic coordinates (Bohr) and species
siesta:      3.11805   4.32747  14.55090  1        1
siesta:      2.19208   4.72432  16.06268  2        2
siesta:      1.88973   3.53379  13.47375  2        3
siesta:      9.78879  17.85792  16.42173  1        4
siesta:      8.31480  18.12248  15.40127  2        5
siesta:      9.69430  16.11937  16.91306  2        6
siesta:     12.94463   8.91951   5.14006  1        7
siesta:     12.90683   8.35259   3.42041  2        8
siesta:     14.45641   8.20141   5.82036  2        9
siesta:     10.58247   7.14317  18.42484  1       10
siesta:      9.95886   7.06758  16.72408  2       11
siesta:      9.08959   7.23765  19.42639  2       12
siesta:      0.66140   8.93841  13.68162  1       13
siesta:     -0.98266   9.67540  13.66273  2       14
siesta:      0.49133   7.46442  14.70208  2       15
siesta:      5.74477   0.49133  12.62338  1       16
siesta:      7.23765   0.73699  11.62182  2       17
siesta:      5.27234   2.15429  13.15250  2       18
siesta:      1.37950  17.76343  18.16028  1       19
siesta:     -0.05669  16.70519  17.85792  2       20
siesta:      1.09604  18.48153  19.78544  2       21
siesta:     11.50844  13.81390   5.53690  1       22
siesta:      9.76989  13.62493   5.02667  2       23
siesta:     12.01866  12.15094   6.00933  2       24
siesta:     12.98242  15.26899  10.31791  1       25
siesta:     13.88949  13.88949  11.01711  2       26
siesta:     12.43440  14.66428   8.69274  2       27
siesta:      2.57003   6.84081   9.41084  1       28
siesta:      4.19519   6.31169  10.01555  2       29
siesta:      1.68186   7.36993  10.90372  2       30
siesta:      5.38572   1.02045   3.25033  1       31
siesta:      4.95108   1.54958   1.56847  2       32
siesta:      3.77945   0.86927   4.10071  2       33
siesta:      5.76367  14.32413   3.81725  1       34
siesta:      5.99043  16.10047   3.49599  2       35
siesta:      5.63139  14.19185   5.61249  2       36
siesta:      5.82036   9.78879  15.51466  1       37
siesta:      5.17785  10.37460  17.10203  2       38
siesta:      4.36527   9.75099  14.41862  2       39
siesta:     12.11315   4.72432  12.98242  1       40
siesta:     12.03756   2.92908  13.26588  2       41
siesta:     13.85170   5.06447  12.60448  2       42
siesta:     14.47531   0.00000   4.08181  1       43
siesta:     12.79345  -0.37795   4.62983  2       44
siesta:     14.22964   1.02045   2.60782  2       45
siesta:      9.22187  10.69585  11.69741  1       46
siesta:      8.18252  10.26122  13.11470  2       47
siesta:      9.54312   9.10848  10.86593  2       48
siesta:      2.92908  11.11159   1.28501  1       49
siesta:      3.83615  12.39661   2.15429  2       50
siesta:      1.19053  11.58403   1.45509  2       51
siesta:      2.70231  15.11782  14.17295  1       52
siesta:      1.75745  13.88949  15.09892  2       53
siesta:      2.55113  16.62960  15.17451  2       54
siesta:     15.28789  14.17295  17.02644  1       55
siesta:     15.81701  13.88949  18.72719  2       56
siesta:     13.85170  15.25010  17.17762  2       57
siesta:     17.49887   5.10226  -0.26456  1       58
siesta:     17.57446   5.29124   1.53068  2       59
siesta:     15.94929   4.19519  -0.54802  2       60
siesta:      6.55735   7.21876   2.79680  1       61
siesta:      5.55580   8.73054   2.85349  2       62
siesta:      5.36682   5.87705   3.11805  2       63
siesta:      0.03779   7.19986   4.72432  1       64
siesta:      0.64251   7.42663   6.40617  2       65
siesta:      1.36060   7.88016   3.68497  2       66
siesta:     17.23431   2.66451  11.28167  1       67
siesta:     17.76343   0.94486  11.01711  2       68
siesta:     17.04534   3.34482   9.59981  2       69
siesta:      7.95575   5.68808  10.16673  1       70
siesta:      9.31635   5.31013  11.30057  2       71
siesta:      8.01244   4.36527   8.93841  2       72
siesta:     16.83747  13.54934   3.55269  1       73
siesta:     15.23120  13.47375   4.38417  2       74
siesta:     17.85792  14.56979   4.62983  2       75
siesta:     17.97130  16.00599   9.92107  1       76
siesta:     18.95396  15.68473  11.39505  2       77
siesta:     16.25165  15.94929  10.50688  2       78
siesta:     14.17295  10.84703  13.00132  1       79
siesta:     14.39972  12.20764  14.17295  2       80
siesta:     12.39661  10.82814  12.68007  2       81
siesta:      9.01400   0.69920   6.78412  1       82
siesta:      8.42818  -0.83148   7.54001  2       83
siesta:      8.08803   0.83148   5.23454  2       84
siesta:      6.02823  14.58869   9.16518  1       85
siesta:      7.14317  13.22809   9.63761  2       86
siesta:      5.78256  15.51466  10.69585  2       87
siesta:      0.77479  18.50043   5.53690  1       88
siesta:      0.56692  17.82012   7.19986  2       89
siesta:     -0.90707  18.65160   4.89439  2       90
siesta:     13.03912   2.70231  18.31145  1       91
siesta:     11.98087   4.15740  18.27366  2       92
siesta:     11.99977   1.34171  17.72564  2       93
siesta:      9.63761  12.92573  17.66895  1       94
siesta:      8.18252  12.26433  16.83747  2       95
siesta:     10.48798  11.45174  18.31145  2       96

siesta: System type = bulk      

initatomlists: Number of atoms, orbitals, and projectors:     96  2912  1536

siesta: ******************** Simulation parameters ****************************
siesta:
siesta: The following are some of the parameters of the simulation.
siesta: A complete list of the parameters used, including default values,
siesta: can be found in file out.fdf
siesta:
redata: Non-Collinear-spin run           =     F
redata: SpinPolarized (Up/Down) run      =     F
redata: Number of spin components        =     1
redata: Long output                      =     F
redata: Number of Atomic Species         =        2
redata: Charge density info will appear in .RHO file
redata: Write Mulliken Pop.              =     NO
redata: Mesh Cutoff                      =   150.0000  Ry
redata: Net charge of the system         =     0.0000 |e|
redata: Min. number of SCF Iter          =        0
redata: Max. number of SCF Iter          =       50
redata: Mix DM or H after convergence    =     F
redata: Recompute H after scf cycle      =     F
redata: Performing Pulay mixing using    =     3 iterations
redata: Mix DM in first SCF step ?       =     F
redata: Write Pulay info on disk?        =     F
redata: Discard 1st Pulay DM after  kick =     F
redata: New DM Mixing Weight             =     0.3000
redata: New DM Occupancy tolerance       = 0.000000000001
redata: No kicks to SCF
redata: DM Mixing Weight for Kicks       =     0.5000
redata: DM Tolerance for SCF             =     0.000100
redata: Require (free) Energy convergence in SCF =     F
redata: DM (free)Energy tolerance for SCF =     0.000010 eV
redata: Require Harris convergence for SCF =     F
redata: DM Harris energy tolerance for SCF =     0.000010 eV
redata: Using Saved Data (generic)   =     F
redata: Use continuation files for DM    =     F
redata: Neglect nonoverlap interactions  =     F
redata: Method of Calculation            =     old SLEPc
redata: Fix the spin of the system       =     F
redata: Dynamics option                  =     Single-point calculation
redata: ***********************************************************************
Total number of electrons:   256.000000
Total ionic charge:   256.000000

* ProcessorY, Blocksize:    8  46


* Orbital distribution balance (max,min):    46    14

 Kpoints in:            1 . Kpoints trimmed:            1

siesta: k-grid: Number of k-points =     1
siesta: k-grid: Cutoff (effective) =     4.928 Ang
siesta: k-grid: Supercell and displacements
siesta: k-grid:    1   0   0      0.000
siesta: k-grid:    0   1   0      0.000
siesta: k-grid:    0   0   1      0.000

                     ====================================
                        Single-point calculation
                     ====================================

outcell: Unit cell vectors (Ang):
        9.856391    0.000000    0.000000
        0.000000    9.856391    0.000000
        0.000000    0.000000    9.856391

outcell: Cell vector modules (Ang)   :    9.856391    9.856391    9.856391
outcell: Cell angles (23,13,12) (deg):     90.0000     90.0000     90.0000
outcell: Cell volume (Ang**3)        :    957.5332
 Folding of H and S is implicitly performed
New_DM. Step:     1
Initializing Density Matrix...
New grid distribution:   1
           1       1:   40    1:    5    1:    5
           2       1:   40    1:    5    6:   10
           3       1:   40    1:    5   11:   15
           4       1:   40    1:    5   16:   20
           5       1:   40    1:    5   21:   25
           6       1:   40    1:    5   26:   30
           7       1:   40    1:    5   31:   35
           8       1:   40    1:    5   36:   40
           9       1:   40    6:   10    1:    5
          10       1:   40    6:   10    6:   10
          11       1:   40    6:   10   11:   15
          12       1:   40    6:   10   16:   20
          13       1:   40    6:   10   21:   25
          14       1:   40    6:   10   26:   30
          15       1:   40    6:   10   31:   35
          16       1:   40    6:   10   36:   40
          17       1:   40   11:   15    1:    5
          18       1:   40   11:   15    6:   10
          19       1:   40   11:   15   11:   15
          20       1:   40   11:   15   16:   20
          21       1:   40   11:   15   21:   25
          22       1:   40   11:   15   26:   30
          23       1:   40   11:   15   31:   35
          24       1:   40   11:   15   36:   40
          25       1:   40   16:   20    1:    5
          26       1:   40   16:   20    6:   10
          27       1:   40   16:   20   11:   15
          28       1:   40   16:   20   16:   20
          29       1:   40   16:   20   21:   25
          30       1:   40   16:   20   26:   30
          31       1:   40   16:   20   31:   35
          32       1:   40   16:   20   36:   40
          33       1:   40   21:   25    1:    5
          34       1:   40   21:   25    6:   10
          35       1:   40   21:   25   11:   15
          36       1:   40   21:   25   16:   20
          37       1:   40   21:   25   21:   25
          38       1:   40   21:   25   26:   30
          39       1:   40   21:   25   31:   35
          40       1:   40   21:   25   36:   40
          41       1:   40   26:   30    1:    5
          42       1:   40   26:   30    6:   10
          43       1:   40   26:   30   11:   15
          44       1:   40   26:   30   16:   20
          45       1:   40   26:   30   21:   25
          46       1:   40   26:   30   26:   30
          47       1:   40   26:   30   31:   35
          48       1:   40   26:   30   36:   40
          49       1:   40   31:   35    1:    5
          50       1:   40   31:   35    6:   10
          51       1:   40   31:   35   11:   15
          52       1:   40   31:   35   16:   20
          53       1:   40   31:   35   21:   25
          54       1:   40   31:   35   26:   30
          55       1:   40   31:   35   31:   35
          56       1:   40   31:   35   36:   40
          57       1:   40   36:   40    1:    5
          58       1:   40   36:   40    6:   10
          59       1:   40   36:   40   11:   15
          60       1:   40   36:   40   16:   20
          61       1:   40   36:   40   21:   25
          62       1:   40   36:   40   26:   30
          63       1:   40   36:   40   31:   35
          64       1:   40   36:   40   36:   40

InitMesh: MESH =    80 x    80 x    80 =      512000
InitMesh: (bp) =    40 x    40 x    40 =       64000
InitMesh: Mesh cutoff (required, used) =   150.000   182.073 Ry
ExtMesh (bp) on 0 =   128 x    93 x    93 =     1107072
New grid distribution:   2
           1      11:   20   11:   21   21:   30
           2      11:   20    1:   10   21:   30
           3      21:   30    1:   10    1:   10
           4      21:   29   31:   40   31:   40
           5       1:   10   11:   21   31:   40
           6      31:   40    1:   10    1:   10
           7      11:   20    1:   10   31:   40
           8      21:   30   22:   30   21:   30
           9       1:   10   11:   21   21:   30
          10       1:   10    1:   10   21:   30
          11      31:   40    1:   10   11:   20
          12      31:   40   22:   30   21:   30
          13      21:   30   11:   21   21:   30
          14      21:   30    1:   10   11:   20
          15       1:   10    1:   10   31:   40
          16      21:   30   22:   30    1:   10
          17      21:   30   11:   21    1:   10
          18      31:   40   22:   30    1:   10
          19      31:   40   11:   21   11:   20
          20      11:   20   12:   21   11:   20
          21      21:   30    1:   10   31:   40
          22      31:   40   31:   40    1:   10
          23      21:   30   11:   21   31:   40
          24      21:   30   32:   40   11:   20
          25      31:   40   11:   21    1:   10
          26      11:   20   22:   31   31:   40
          27       1:   10   12:   21   11:   20
          28       1:   10   32:   40    1:   10
          29      31:   40   11:   21   21:   30
          30      31:   40    1:   10   31:   40
          31      21:   30   22:   31   11:   20
          32      11:   20   32:   40   21:   30
          33      31:   40    1:   10   21:   30
          34       1:   10   22:   31    1:   10
          35      21:   30   11:   21   11:   20
          36       1:   10   32:   40   11:   20
          37       1:   10   22:   31   21:   30
          38      21:   30   31:   40    1:   10
          39      31:   40   11:   21   31:   40
          40      21:   30   22:   30   31:   40
          41      11:   20   11:   21   31:   40
          42      21:   30    1:   10   21:   30
          43       1:   10   22:   31   11:   20
          44      11:   20   32:   40    1:   10
          45       1:   10    1:   11   11:   20
          46      11:   20   22:   31   21:   30
          47       1:   10    1:   10    1:   10
          48      31:   40   22:   30   31:   40
          49      11:   20   11:   21    1:   10
          50       1:   10   22:   31   31:   40
          51      11:   20   22:   31   11:   20
          52      31:   40   32:   40   11:   20
          53      11:   20    1:   11   11:   20
          54      31:   40   31:   40   21:   30
          55      31:   40   22:   31   11:   20
          56      11:   20   32:   40   31:   40
          57       1:   10   11:   21    1:   10
          58      11:   20   22:   31    1:   10
          59      11:   20    1:   10    1:   10
          60      11:   20   32:   40   11:   20
          61      21:   30   31:   40   21:   30
          62       1:   10   32:   40   21:   30
          63      30:   40   31:   40   31:   40
          64       1:   10   32:   40   31:   40
New grid distribution:   3
           1      21:   30   11:   20   31:   40
           2      21:   30   31:   40   31:   40
           3      21:   30   11:   20    1:   10
           4      21:   30   31:   40    1:   10
           5      21:   30    1:   10   21:   30
           6      31:   40   31:   40   31:   40
           7      31:   40   11:   20    1:   10
           8      31:   40   31:   40    1:   10
           9      31:   40   11:   20   31:   40
          10      21:   30   21:   30   31:   40
          11      21:   30    1:   10    1:   10
          12      21:   30   21:   30    1:   10
          13      31:   40    1:   10   21:   30
          14      31:   40   21:   30   31:   40
          15      31:   40    1:   10    1:   10
          16      31:   40   21:   30    1:   10
          17      21:   30    1:   10   31:   40
          18       1:   10   31:   40   21:   30
          19      21:   30   11:   20   11:   20
          20       1:   10   31:   40    1:   10
          21      21:   30   11:   20   21:   30
          22      11:   20   31:   40   21:   30
          23      21:   30    1:   10   11:   20
          24      11:   20   31:   40    1:   10
          25      31:   40    1:   10   31:   40
          26       1:   10   21:   30   21:   30
          27      31:   40   11:   20   11:   20
          28       1:   10   21:   30    1:   10
          29      31:   40   11:   20   21:   30
          30      11:   20   21:   30   21:   30
          31      31:   40    1:   10   11:   20
          32      11:   20   21:   30    1:   10
          33       1:   10   11:   20   21:   30
          34       1:   10   31:   40   31:   40
          35       1:   10   11:   20    1:   10
          36      21:   30   21:   30   11:   20
          37      11:   20   11:   20   21:   30
          38      21:   30   21:   30   21:   30
          39      11:   20   11:   20    1:   10
          40       1:   10   31:   40   11:   20
          41       1:   10    1:   10   21:   30
          42      11:   20   31:   40   31:   40
          43       1:   10    1:   10    1:   10
          44      31:   40   21:   30   11:   20
          45      11:   20    1:   10   21:   30
          46      31:   40   21:   30   21:   30
          47      11:   20    1:   10    1:   10
          48      11:   20   31:   40   11:   20
          49       1:   10   11:   20   31:   40
          50       1:   10   21:   30   31:   40
          51       1:   10   11:   20   11:   20
          52      21:   30   31:   40   11:   20
          53      11:   20   11:   20   31:   40
          54      21:   30   31:   40   21:   30
          55      11:   20   11:   20   11:   20
          56       1:   10   21:   30   11:   20
          57       1:   10    1:   10   31:   40
          58      11:   20   21:   30   31:   40
          59       1:   10    1:   10   11:   20
          60      31:   40   31:   40   11:   20
          61      11:   20    1:   10   31:   40
          62      31:   40   31:   40   21:   30
          63      11:   20    1:   10   11:   20
          64      11:   20   21:   30   11:   20
Setting up quadratic distribution...
ExtMesh (bp) on 0 =    98 x    99 x    98 =      950796
PhiOnMesh: Number of (b)points on node 0 =                 1100
PhiOnMesh: nlist on node 0 =               866383
 QETSC: Update                =1609221156
QETSC: Number of ranks       =          64
QETSC: Number of slices      =          64
QETSC: Number of ranks/slice =           1
QETSC: Number of evals/slice =   2.00
QETSC: Number of req. evals  =         128
QETSC: Number of rows (all)  =        2912
QETSC: Number of rows (max)  =          46
QETSC: Number of rows (min)  =          14
QETSC: Number of nonzeros    =     5568584
QETSC: Nonzero % (all)       =  65.67
QETSC: Nonzero % (max)       =  69.02
QETSC: Nonzero % (min)       =  62.15
QETSC: Global evecs          =      F
QETSC: Bin type given        =           3
QETSC: Bin buffer            =   0.05
QETSC: Diff thresh           =   0.05
QETSC: Infinity type         =           2
QETSC: Inertia type          =           1
 QETSC: Estimated eigenvalues         =
-2.2000000000000002E+00
-2.1936507936507939E+00
-2.1873015873015875E+00
-2.1809523809523812E+00
-2.1746031746031749E+00
-2.1682539682539685E+00
-2.1664902998236335E+00
-2.1647266313932985E+00
-2.1629629629629634E+00
-2.1611992945326284E+00
-2.1594356261022929E+00
-2.1576719576719579E+00
-2.1559082892416228E+00
-2.1541446208112878E+00
-2.1523809523809527E+00
-2.1506172839506177E+00
-2.1488536155202826E+00
-2.1470899470899476E+00
-2.1453262786596126E+00
-2.1435626102292771E+00
-2.1417989417989420E+00
-2.1400352733686070E+00
-2.1382716049382720E+00
-2.1365079365079369E+00
-2.1329805996472668E+00
-2.1294532627865963E+00
-2.1259259259259262E+00
-2.1223985890652561E+00
-2.1188712522045856E+00
-2.1153439153439155E+00
-2.1118165784832454E+00
-2.1082892416225749E+00
-1.2793650793650797E+00
-1.2730158730158734E+00
-1.2666666666666671E+00
-1.2603174603174605E+00
-1.2539682539682542E+00
-1.2476190476190478E+00
-1.2449735449735453E+00
-1.2423280423280425E+00
-1.2396825396825399E+00
-1.2370370370370372E+00
-1.2343915343915346E+00
-1.2317460317460318E+00
-1.2291005291005292E+00
-1.2264550264550267E+00
-1.2238095238095239E+00
-1.2211640211640213E+00
-1.2185185185185186E+00
-1.2158730158730160E+00
-1.2134310134310136E+00
-1.2109890109890111E+00
-1.2085470085470087E+00
-1.2061050061050063E+00
-1.2036630036630038E+00
-1.2012210012210014E+00
-1.1987789987789990E+00
-1.1963369963369965E+00
-1.1938949938949941E+00
-1.1914529914529917E+00
-1.1890109890109892E+00
-1.1865689865689868E+00
-1.1841269841269844E+00
-1.1682539682539685E+00
-1.0888888888888890E+00
-1.0571428571428574E+00
-1.0518518518518520E+00
-1.0465608465608469E+00
-1.0412698412698416E+00
-1.0359788359788362E+00
-1.0306878306878311E+00
-1.0253968253968258E+00
-1.0214285714285718E+00
-1.0174603174603178E+00
-1.0134920634920639E+00
-1.0095238095238099E+00
-1.0055555555555558E+00
-1.0015873015873018E+00
-9.9761904761904785E-01
-9.9365079365079390E-01
-9.9012345679012370E-01
-9.8659611992945351E-01
-9.8306878306878331E-01
-9.7954144620811312E-01
-9.7601410934744282E-01
-9.7248677248677262E-01
-9.6895943562610243E-01
-9.6543209876543223E-01
-9.6190476190476204E-01
-9.5736961451247182E-01
-9.5283446712018161E-01
-9.4829931972789139E-01
-9.4376417233560106E-01
-9.3922902494331084E-01
-9.3469387755102062E-01
-9.3015873015873041E-01
-8.6666666666666692E-01
-8.6507936507936534E-01
-8.6349206349206375E-01
-8.6190476190476217E-01
-8.6031746031746059E-01
-8.5873015873015901E-01
-8.5714285714285732E-01
-8.5555555555555574E-01
-8.5396825396825415E-01
-8.5238095238095257E-01
-8.5079365079365099E-01
-8.4920634920634941E-01
-8.4761904761904783E-01
-8.4603174603174625E-01
-8.4444444444444466E-01
-8.4285714285714297E-01
-8.4126984126984139E-01
-8.3968253968253981E-01
-8.3809523809523823E-01
-8.3650793650793664E-01
-8.3492063492063506E-01
-8.3227513227513239E-01
-8.2962962962962983E-01
-8.2698412698412715E-01
-8.2433862433862448E-01
-8.2169312169312192E-01
-8.1904761904761925E-01
-8.1640211640211657E-01
-8.1375661375661401E-01
-8.1111111111111134E-01
-8.0846560846560866E-01
-2.0000000000000018E-01
 QETSC: Bins             =
              -Infinity
-2.2000000000000002E+00
-2.1938859494415053E+00
-2.1877718988830099E+00
-2.1816578483245150E+00
-2.1755437977660201E+00
-2.1694297472075252E+00
-2.1633156966490299E+00
-2.1572016460905350E+00
-2.1510875955320401E+00
-2.1449735449735452E+00
-2.1388594944150499E+00
-2.1327454438565550E+00
-2.1266313932980601E+00
-2.1205173427395652E+00
-2.1144032921810698E+00
-2.1082892416225749E+00
-1.2793650793650797E+00
-1.2563998649105035E+00
-1.2334346504559275E+00
-1.2104694360013513E+00
-1.1875042215467750E+00
-1.1645390070921988E+00
-1.1415737926376228E+00
-1.1186085781830466E+00
-1.0956433637284704E+00
-1.0726781492738944E+00
-1.0497129348193182E+00
-1.0267477203647419E+00
-1.0037825059101659E+00
-9.8081729145558971E-01
-9.5785207700101349E-01
-9.3488686254643727E-01
-9.1192164809186116E-01
-8.8895643363728505E-01
-8.6599121918270883E-01
-8.4302600472813261E-01
-8.2006079027355649E-01
-7.9709557581898038E-01
-7.7413036136440416E-01
-7.5116514690982805E-01
-7.2819993245525194E-01
-7.0523471800067572E-01
-6.8226950354609961E-01
-6.5930428909152339E-01
-6.3633907463694728E-01
-6.1337386018237106E-01
-5.9040864572779495E-01
-5.6744343127321872E-01
-5.4447821681864261E-01
-5.2151300236406650E-01
-4.9854778790949028E-01
-4.7558257345491417E-01
-4.5261735900033795E-01
-4.2965214454576184E-01
-4.0668693009118562E-01
-3.8372171563660951E-01
-3.6075650118203328E-01
-3.3779128672745717E-01
-3.1482607227288106E-01
-2.9186085781830484E-01
-2.6889564336372862E-01
-2.4593042890915262E-01
-2.2296521445457640E-01
-2.0000000000000018E-01
QETSC: Started iter            1
QETSC: Bin type used         =           3
QETSC: Buffer used           = 0.00000000000E+00
QETSC: EPS interval          = -Infinity,    -0.200
QETSC: Inertia type          =           1
 QETSC: Eigenvalues         =
-2.1843076548021685E+00
-2.1783975041508361E+00
-2.1738264624671535E+00
-2.1721071224529869E+00
-2.1692347582294751E+00
-2.1651877128682151E+00
-2.1629752939529023E+00
-2.1624359808562024E+00
-2.1610263367950542E+00
-2.1601360630024313E+00
-2.1581973084095813E+00
-2.1571353009773597E+00
-2.1553714281501501E+00
-2.1538511078197633E+00
-2.1504736447780548E+00
-2.1470198883939275E+00
-2.1467443808627236E+00
-2.1450908481608195E+00
-2.1424264073311621E+00
-2.1419573590199983E+00
-2.1387564317801115E+00
-2.1380673764969553E+00
-2.1366860044713434E+00
-2.1364504924472230E+00
-2.1343574820413989E+00
-2.1327466252330973E+00
-2.1309939017273578E+00
-2.1293670752189158E+00
-2.1274639937968991E+00
-2.1270364853408030E+00
-2.1262398580900279E+00
-2.1240387371898346E+00
-1.2570253557683200E+00
-1.2557529000591650E+00
-1.2537014317470239E+00
-1.2495780985168570E+00
-1.2484004370934640E+00
-1.2441286155555344E+00
-1.2383015883880715E+00
-1.2377379945121538E+00
-1.2361694960173821E+00
-1.2356115443379330E+00
-1.2331165657200656E+00
-1.2309437717209224E+00
-1.2276871124832995E+00
-1.2254419185407048E+00
-1.2234799797008198E+00
-1.2221372733422293E+00
-1.2169969724524117E+00
-1.2150915358165235E+00
-1.2129468298025363E+00
-1.2101429801026542E+00
-1.2089203745932930E+00
-1.2056936438869204E+00
-1.2054530919991082E+00
-1.2021423647241554E+00
-1.2003565832001815E+00
-1.1999270431321434E+00
-1.1989765947137510E+00
-1.1962461969958673E+00
-1.1941953606362490E+00
-1.1904993183541850E+00
-1.1836490330504210E+00
-1.1807869775114552E+00
-1.0630256089500094E+00
-1.0533201253648754E+00
-1.0455055453347550E+00
-1.0400577905034960E+00
-1.0374106305038542E+00
-1.0285122925773442E+00
-1.0275894406692099E+00
-1.0225177647113830E+00
-1.0205002277764923E+00
-1.0167752936898740E+00
-1.0162372507015567E+00
-1.0055960692573969E+00
-1.0046947339751013E+00
-1.0018594866512975E+00
-9.9566908472095861E-01
-9.9314589950290111E-01
-9.8837760673344555E-01
-9.8573771012281275E-01
-9.8293075240284333E-01
-9.7562210733096255E-01
-9.7370105155837439E-01
-9.6996263896530288E-01
-9.6657638777694954E-01
-9.6241478636030031E-01
-9.6065552795638898E-01
-9.5776734060576374E-01
-9.5491132299037773E-01
-9.5160801956685270E-01
-9.4813047777949711E-01
-9.3924642608516684E-01
-9.3517844096675573E-01
-9.2821465995783137E-01
-8.6491694020078647E-01
-8.6310863585706998E-01
-8.6007052840862741E-01
-8.5937028120269554E-01
-8.5685849111210322E-01
-8.5596908377502590E-01
-8.5486310839273127E-01
-8.5160166148750971E-01
-8.4919703759012721E-01
-8.4745215474055691E-01
-8.4704043611231383E-01
-8.4652950982430120E-01
-8.4593322399312687E-01
-8.4393299597762084E-01
-8.4348272753142683E-01
-8.4113614958320970E-01
-8.3900444245251415E-01
-8.3803613339453020E-01
-8.3624327134436260E-01
-8.3520124602167256E-01
-8.3376030877969753E-01
-8.3276620129245238E-01
-8.3126900316606744E-01
-8.3049324823748183E-01
-8.2947019225514729E-01
-8.2852345982891995E-01
-8.2650987379621343E-01
-8.2606998676811938E-01
-8.2363370911617051E-01
-8.2222838403296017E-01
-8.1953160325585261E-01
-8.1872301551209392E-01
QETSC: Iter time (min)       =  10.51
QETSC: Iter time (max)       =  12.05
QETSC: Iter time (avg)       =  11.69
QETSC: Num. of conv. evals   =         129
QETSC: Eigenvalue (1)        =-2.18430765480E+00
QETSC: Eigenvalue (nocc)     =-8.18723015512E-01
QETSC: Max differrence       = 2.18430765480E+00
QETSC: Safe iteration        =      F
QETSC: Finished iter            1
 *****************************************************************

siesta: Program's energy decomposition (eV):
siesta: Ebs     =     -4529.853161
siesta: Eions   =     26107.343333
siesta: Ena     =      5853.795051
siesta: Ekin    =     10461.560592
siesta: Enl     =     -1536.356393
siesta: DEna    =        -0.000008
siesta: DUscf   =         0.000000
siesta: DUext   =         0.000000
siesta: Exc     =     -3633.754362
siesta: eta*DQ  =         0.000000
siesta: Emadel  =         0.000000
siesta: Emeta   =         0.000000
siesta: Emolmec =         0.000000
siesta: Ekinion =         0.000000
siesta: Eharris =    -15105.127527
siesta: Etot    =    -14962.098453
siesta: FreeEng =    -14962.098453
timer: Routine,Calls,Time,% =    IterSCF     1      36.943  42.33
             Section          Calls    Walltime % sect.
 IterSCF                          1      38.384  100.00
  setup_H                         1      23.287   60.67
  compute_dm                      1      15.019   39.13
  MPI_ALLREDUCE                   3       0.037    0.10
  MIXER                           1       0.013    0.03
 QETSC: Estimated eigenvalues         =
-1.7873015873015876E+00
-1.7555555555555558E+00
-1.7238095238095239E+00
-1.7174603174603176E+00
-1.7111111111111112E+00
-1.7047619047619049E+00
-1.6984126984126986E+00
-1.6920634920634923E+00
-1.6875283446712019E+00
-1.6829931972789118E+00
-1.6784580498866215E+00
-1.6739229024943314E+00
-1.6693877551020411E+00
-1.6648526077097510E+00
-1.6603174603174606E+00
-1.6563492063492067E+00
-1.6523809523809527E+00
-1.6484126984126988E+00
-1.6444444444444448E+00
-1.6404761904761906E+00
-1.6365079365079367E+00
-1.6325396825396827E+00
-1.6285714285714288E+00
-1.6240362811791385E+00
-1.6195011337868483E+00
-1.6149659863945580E+00
-1.6104308390022677E+00
-1.6058956916099774E+00
-1.6013605442176873E+00
-1.5968253968253969E+00
-1.5809523809523811E+00
-1.5333333333333337E+00
-9.3015873015873041E-01
-9.2222222222222250E-01
-9.1428571428571459E-01
-9.0634920634920668E-01
-8.9841269841269877E-01
-8.9312169312169343E-01
-8.8783068783068819E-01
-8.8253968253968285E-01
-8.7724867724867750E-01
-8.7195767195767226E-01
-8.6666666666666692E-01
-8.6269841269841296E-01
-8.5873015873015901E-01
-8.5476190476190494E-01
-8.5079365079365099E-01
-8.4682539682539704E-01
-8.4285714285714297E-01
-8.3888888888888902E-01
-8.3492063492063506E-01
-8.3038548752834485E-01
-8.2585034013605463E-01
-8.2131519274376441E-01
-8.1678004535147408E-01
-8.1224489795918386E-01
-8.0770975056689365E-01
-8.0317460317460343E-01
-7.9682539682539710E-01
-7.9047619047619078E-01
-7.8412698412698445E-01
-7.7777777777777812E-01
-7.7142857142857180E-01
-7.3968253968253994E-01
-6.4444444444444482E-01
-6.2857142857142889E-01
-6.1269841269841296E-01
-6.0211640211640238E-01
-5.9153439153439169E-01
-5.8095238095238111E-01
-5.7566137566137587E-01
-5.7037037037037053E-01
-5.6507936507936529E-01
-5.5978835978836006E-01
-5.5449735449735471E-01
-5.4920634920634948E-01
-5.4126984126984157E-01
-5.3333333333333366E-01
-5.2539682539682575E-01
-5.1746031746031784E-01
-5.0952380952380993E-01
-5.0158730158730191E-01
-4.9365079365079395E-01
-4.8571428571428599E-01
-4.7936507936507960E-01
-4.7301587301587322E-01
-4.6666666666666690E-01
-4.6031746031746051E-01
-4.5396825396825413E-01
-4.4761904761904781E-01
-4.4126984126984148E-01
-4.3492063492063515E-01
-4.2857142857142883E-01
-4.2222222222222250E-01
-4.1587301587301617E-01
-4.0952380952380985E-01
-4.0317460317460352E-01
-3.9682539682539719E-01
-3.9047619047619087E-01
-3.8518518518518557E-01
-3.7989417989418023E-01
-3.7460317460317494E-01
-3.6931216931216965E-01
-3.6402116402116430E-01
-3.5873015873015901E-01
-3.5476190476190506E-01
-3.5079365079365105E-01
-3.4682539682539704E-01
-3.4285714285714308E-01
-3.3888888888888913E-01
-3.3492063492063512E-01
-3.3095238095238111E-01
-3.2698412698412715E-01
-3.2345679012345696E-01
-3.1992945326278677E-01
-3.1640211640211663E-01
-3.1287477954144643E-01
-3.0934744268077624E-01
-3.0582010582010605E-01
-3.0229276895943591E-01
-2.9876543209876572E-01
-2.9523809523809552E-01
-2.8888888888888919E-01
-2.8253968253968287E-01
-2.7619047619047654E-01
-2.6984126984127021E-01
-2.6349206349206389E-01
-2.0000000000000018E-01
 QETSC: Bins             =
              -Infinity
-1.7873015873015876E+00
-1.7703703703703706E+00
-1.7534391534391538E+00
-1.7365079365079368E+00
-1.7195767195767200E+00
-1.7026455026455030E+00
-1.6857142857142859E+00
-1.6687830687830691E+00
-1.6518518518518521E+00
-1.6349206349206353E+00
-1.6179894179894183E+00
-1.6010582010582013E+00
-1.5841269841269845E+00
-1.5671957671957675E+00
-1.5502645502645507E+00
-1.5333333333333337E+00
-9.3015873015873041E-01
-9.1462343802769364E-01
-8.9908814589665675E-01
-8.8355285376561998E-01
-8.6801756163458310E-01
-8.5248226950354633E-01
-8.3694697737250956E-01
-8.2141168524147268E-01
-8.0587639311043591E-01
-7.9034110097939902E-01
-7.7480580884836225E-01
-7.5927051671732548E-01
-7.4373522458628860E-01
-7.2819993245525183E-01
-7.1266464032421495E-01
-6.9712934819317818E-01
-6.8159405606214141E-01
-6.6605876393110464E-01
-6.5052347180006775E-01
-6.3498817966903087E-01
-6.1945288753799410E-01
-6.0391759540695733E-01
-5.8838230327592056E-01
-5.7284701114488368E-01
-5.5731171901384680E-01
-5.4177642688281002E-01
-5.2624113475177325E-01
-5.1070584262073648E-01
-4.9517055048969960E-01
-4.7963525835866277E-01
-4.6409996622762600E-01
-4.4856467409658918E-01
-4.3302938196555235E-01
-4.1749408983451552E-01
-4.0195879770347875E-01
-3.8642350557244187E-01
-3.7088821344140510E-01
-3.5535292131036833E-01
-3.3981762917933145E-01
-3.2428233704829468E-01
-3.0874704491725780E-01
-2.9321175278622102E-01
-2.7767646065518425E-01
-2.6214116852414737E-01
-2.4660587639311060E-01
-2.3107058426207372E-01
-2.1553529213103695E-01
-2.0000000000000018E-01
QETSC: Started iter            2
QETSC: Bin type used         =           3
QETSC: Buffer used           = 0.00000000000E+00
QETSC: EPS interval          = -Infinity,    -0.200
QETSC: Inertia type          =           1
 QETSC: Eigenvalues         =
-1.7571024231446466E+00
-1.7242732810533485E+00
-1.7171894727044674E+00
-1.7040032222109178E+00
-1.7030053155029636E+00
-1.7012517385945023E+00
-1.6960171886513666E+00
-1.6918877749213166E+00
-1.6903135847967947E+00
-1.6813780928832511E+00
-1.6777023081118272E+00
-1.6715667043978018E+00
-1.6709351273211352E+00
-1.6669650762592063E+00
-1.6590410690189290E+00
-1.6567838789410443E+00
-1.6519401448690532E+00
-1.6450943537573868E+00
-1.6420610468751293E+00
-1.6383447509804576E+00
-1.6360454588212170E+00
-1.6330004087677776E+00
-1.6283834980274337E+00
-1.6205520905568223E+00
-1.6183510826584970E+00
-1.6101609087680124E+00
-1.6096665061119961E+00
-1.6053977171841163E+00
-1.5972883247836900E+00
-1.5883938792913503E+00
-1.5876599434996423E+00
-1.5289971970060363E+00
-9.2427436301355603E-01
-9.2065641888753857E-01
-9.1338780186624602E-01
-8.9947395751896364E-01
-8.9563638538719392E-01
-8.9081883289677111E-01
-8.8375448731058226E-01
-8.8024484367079059E-01
-8.7487648538814544E-01
-8.7123256131540594E-01
-8.6194396218537528E-01
-8.5989358468230348E-01
-8.5662489396118457E-01
-8.5312420079838580E-01
-8.4888053902054550E-01
-8.4596458178651435E-01
-8.4174004545467218E-01
-8.3630931928983743E-01
-8.3360107384159754E-01
-8.2650234545132584E-01
-8.2129596098033197E-01
-8.1884552403342170E-01
-8.1555623003145672E-01
-8.0633969710175502E-01
-8.0455080044951000E-01
-8.0073832073838902E-01
-7.9554646342364432E-01
-7.9014304577047079E-01
-7.7841937061919320E-01
-7.7180575648261363E-01
-7.6790851133199345E-01
-7.3429309935049036E-01
-6.4050844114900884E-01
-6.2089325016497143E-01
-6.0304711884394679E-01
-5.9290596245091309E-01
-5.8795828680468976E-01
-5.7777602110172188E-01
-5.7376178018494195E-01
-5.7061163391874814E-01
-5.6490869272327426E-01
-5.6327837501593925E-01
-5.5880515658268504E-01
-5.3153361673955102E-01
-5.2829843281991529E-01
-5.2446631451474635E-01
-5.2087407278160791E-01
-5.0912235293287167E-01
-5.0185063548441966E-01
-4.9622422808340866E-01
-4.9310371118218721E-01
-4.8402542645382118E-01
-4.7224442834572072E-01
-4.6922662283698130E-01
-4.6531012145149514E-01
-4.6138108898298391E-01
-4.5158455337701209E-01
-4.4566567486591879E-01
-4.4008611197754188E-01
-4.3437910909256644E-01
-4.2572502515878297E-01
-4.1526847419772944E-01
-4.0785009559385793E-01
-3.9916354128342457E-01
-3.9539584152025264E-01
-3.9207054765125521E-01
-3.8662626358462532E-01
-3.7954287415315313E-01
-3.7506241711128158E-01
-3.7203784004194679E-01
-3.7010291874044859E-01
-3.6455783775084633E-01
-3.5867884511268544E-01
-3.5206225031214439E-01
-3.5036495069642132E-01
-3.4220029111472949E-01
-3.4166692690839634E-01
-3.3630101977853638E-01
-3.3581096430029145E-01
-3.3290912541546724E-01
-3.2683840307706313E-01
-3.2364194848560568E-01
-3.1819023850647965E-01
-3.1355831445998256E-01
-3.0819721147301021E-01
-3.0335075947798940E-01
-3.0034661462405376E-01
-2.9809253102128103E-01
-2.9599449779527703E-01
-2.9325311969963930E-01
-2.8800470121953248E-01
-2.8227033178509781E-01
-2.7520360833764329E-01
-2.6551590990061186E-01
-2.5901217394342224E-01
-2.2013751630433084E-01
QETSC: Iter time (min)       =   7.82
QETSC: Iter time (max)       =   9.66
QETSC: Iter time (avg)       =   9.50
QETSC: Num. of conv. evals   =         128
QETSC: Eigenvalue (1)        =-1.75710242314E+00
QETSC: Eigenvalue (nocc)     =-2.20137516304E-01
QETSC: Max differrence       = 5.98585499208E-01
QETSC: Safe iteration        =      F
QETSC: Finished iter            2
 *****************************************************************
 QETSC: Estimated eigenvalues         =
-2.0412698412698416E+00
-2.0306878306878309E+00
-2.0201058201058202E+00
-2.0095238095238095E+00
-2.0068783068783067E+00
-2.0042328042328044E+00
-2.0015873015873016E+00
-1.9989417989417990E+00
-1.9962962962962962E+00
-1.9936507936507937E+00
-1.9910052910052911E+00
-1.9883597883597883E+00
-1.9857142857142858E+00
-1.9830687830687832E+00
-1.9804232804232804E+00
-1.9777777777777779E+00
-1.9755102040816328E+00
-1.9732426303854875E+00
-1.9709750566893425E+00
-1.9687074829931974E+00
-1.9664399092970524E+00
-1.9641723356009071E+00
-1.9619047619047620E+00
-1.9596371882086170E+00
-1.9573696145124717E+00
-1.9551020408163267E+00
-1.9528344671201816E+00
-1.9505668934240366E+00
-1.9482993197278913E+00
-1.9460317460317462E+00
-1.9354497354497358E+00
-1.9248677248677251E+00
-1.1523809523809527E+00
-1.1417989417989420E+00
-1.1312169312169316E+00
-1.1206349206349209E+00
-1.1179894179894183E+00
-1.1153439153439155E+00
-1.1126984126984130E+00
-1.1100529100529102E+00
-1.1074074074074076E+00
-1.1047619047619048E+00
-1.1021164021164023E+00
-1.0994708994708997E+00
-1.0968253968253969E+00
-1.0941798941798944E+00
-1.0915343915343916E+00
-1.0888888888888890E+00
-1.0860028860028861E+00
-1.0831168831168834E+00
-1.0802308802308804E+00
-1.0773448773448775E+00
-1.0744588744588746E+00
-1.0715728715728718E+00
-1.0686868686868689E+00
-1.0658008658008660E+00
-1.0629148629148630E+00
-1.0600288600288603E+00
-1.0571428571428574E+00
-1.0518518518518520E+00
-1.0465608465608469E+00
-1.0412698412698416E+00
-1.0359788359788362E+00
-1.0306878306878311E+00
-9.3015873015873041E-01
-8.9841269841269877E-01
-8.9206349206349245E-01
-8.8571428571428601E-01
-8.7936507936507968E-01
-8.7301587301587324E-01
-8.6666666666666692E-01
-8.6137566137566157E-01
-8.5608465608465634E-01
-8.5079365079365099E-01
-8.4550264550264564E-01
-8.4021164021164041E-01
-8.3492063492063506E-01
-8.3038548752834485E-01
-8.2585034013605463E-01
-8.2131519274376441E-01
-8.1678004535147408E-01
-8.1224489795918386E-01
-8.0770975056689365E-01
-8.0317460317460343E-01
-7.9920634920634948E-01
-7.9523809523809552E-01
-7.9126984126984157E-01
-7.8730158730158761E-01
-7.8333333333333366E-01
-7.7936507936507970E-01
-7.7539682539682575E-01
-7.7142857142857180E-01
-7.6349206349206389E-01
-7.5555555555555587E-01
-7.4761904761904785E-01
-7.3968253968253994E-01
-7.0793650793650809E-01
-7.0340136054421787E-01
-6.9886621315192765E-01
-6.9433106575963743E-01
-6.8979591836734711E-01
-6.8526077097505689E-01
-6.8072562358276667E-01
-6.7619047619047645E-01
-6.7407407407407438E-01
-6.7195767195767220E-01
-6.6984126984127013E-01
-6.6772486772486805E-01
-6.6560846560846587E-01
-6.6349206349206380E-01
-6.6137566137566173E-01
-6.5925925925925954E-01
-6.5714285714285747E-01
-6.5502645502645540E-01
-6.5291005291005322E-01
-6.5079365079365115E-01
-6.4867724867724907E-01
-6.4656084656084689E-01
-6.4444444444444482E-01
-6.4091710758377463E-01
-6.3738977072310443E-01
-6.3386243386243424E-01
-6.3033509700176404E-01
-6.2680776014109374E-01
-6.2328042328042355E-01
-6.1975308641975335E-01
-6.1622574955908316E-01
-2.0000000000000018E-01
 QETSC: Bins             =
              -Infinity
-2.0412698412698416E+00
-2.0335097001763671E+00
-2.0257495590828927E+00
-2.0179894179894182E+00
-2.0102292768959438E+00
-2.0024691358024693E+00
-1.9947089947089949E+00
-1.9869488536155204E+00
-1.9791887125220462E+00
-1.9714285714285718E+00
-1.9636684303350973E+00
-1.9559082892416229E+00
-1.9481481481481484E+00
-1.9403880070546740E+00
-1.9326278659611995E+00
-1.9248677248677251E+00
-1.1523809523809527E+00
-1.1321175278622091E+00
-1.1118541033434655E+00
-1.0915906788247218E+00
-1.0713272543059780E+00
-1.0510638297872343E+00
-1.0308004052684907E+00
-1.0105369807497471E+00
-9.9027355623100333E-01
-9.7001013171225969E-01
-9.4974670719351595E-01
-9.2948328267477232E-01
-9.0921985815602868E-01
-8.8895643363728505E-01
-8.6869300911854130E-01
-8.4842958459979767E-01
-8.2816616008105393E-01
-8.0790273556231029E-01
-7.8763931104356666E-01
-7.6737588652482303E-01
-7.4711246200607928E-01
-7.2684903748733565E-01
-7.0658561296859190E-01
-6.8632218844984827E-01
-6.6605876393110464E-01
-6.4579533941236089E-01
-6.2553191489361726E-01
-6.0526849037487362E-01
-5.8500506585612988E-01
-5.6474164133738625E-01
-5.4447821681864261E-01
-5.2421479229989887E-01
-5.0395136778115524E-01
-4.8368794326241160E-01
-4.6342451874366786E-01
-4.4316109422492422E-01
-4.2289766970618059E-01
-4.0263424518743685E-01
-3.8237082066869321E-01
-3.6210739614994958E-01
-3.4184397163120583E-01
-3.2158054711246220E-01
-3.0131712259371857E-01
-2.8105369807497482E-01
-2.6079027355623119E-01
-2.4052684903748756E-01
-2.2026342451874381E-01
-2.0000000000000018E-01
QETSC: Started iter            3
QETSC: Bin type used         =           3
QETSC: Buffer used           = 0.00000000000E+00
QETSC: EPS interval          = -Infinity,    -0.200
QETSC: Inertia type          =           1
 QETSC: Eigenvalues         =
-2.0238880668343269E+00
-2.0161953454098502E+00
-2.0117887168350390E+00
-2.0074072583464835E+00
-2.0060142092913837E+00
-2.0037898620359007E+00
-2.0009121093775097E+00
-1.9985660126258342E+00
-1.9962245139055155E+00
-1.9954688499303472E+00
-1.9929892211572566E+00
-1.9896289137704510E+00
-1.9875172991957133E+00
-1.9853056509105191E+00
-1.9786913239061616E+00
-1.9773668288561328E+00
-1.9741969370125523E+00
-1.9729814467644680E+00
-1.9708187387359524E+00
-1.9701240227443282E+00
-1.9681564594129222E+00
-1.9646306526147443E+00
-1.9624471958117924E+00
-1.9619715057877902E+00
-1.9590859563325591E+00
-1.9580198247409359E+00
-1.9553121807449640E+00
-1.9523077577058798E+00
-1.9512407464128685E+00
-1.9435167172749381E+00
-1.9418674845791200E+00
-1.9293820230947385E+00
-1.1278081752063356E+00
-1.1253750595882470E+00
-1.1248612014065642E+00
-1.1161167545274433E+00
-1.1145933141416975E+00
-1.1119506406518225E+00
-1.1098948614662631E+00
-1.1082477380730487E+00
-1.1051601535220785E+00
-1.1024052773825903E+00
-1.0996737272607044E+00
-1.0960600337238771E+00
-1.0924478704042242E+00
-1.0908124499602723E+00
-1.0889777609680347E+00
-1.0867981644466327E+00
-1.0830572912974488E+00
-1.0766177538707873E+00
-1.0759604982214452E+00
-1.0729327166288167E+00
-1.0692696985067522E+00
-1.0667966713526715E+00
-1.0650879683354075E+00
-1.0618784726504749E+00
-1.0601361434993399E+00
-1.0580586998590349E+00
-1.0554285869461981E+00
-1.0455370689187000E+00
-1.0440348945132449E+00
-1.0419344854642609E+00
-1.0381595013491045E+00
-1.0317702572888809E+00
-9.0902612229487312E-01
-8.9519533960323361E-01
-8.8909103840250281E-01
-8.7972371286565010E-01
-8.7286159300110744E-01
-8.6716251812787837E-01
-8.6543269811969503E-01
-8.6045096610688654E-01
-8.5765458792894100E-01
-8.5513749848675391E-01
-8.5452622544359091E-01
-8.3669010634976293E-01
-8.3486149917465069E-01
-8.3094109484730239E-01
-8.2755697843967457E-01
-8.1539617142672982E-01
-8.1440668394861826E-01
-8.1120979793272474E-01
-8.0607490881738975E-01
-8.0151632287083852E-01
-7.9907634448542120E-01
-7.9258485111624044E-01
-7.8851939971043650E-01
-7.8636669848735696E-01
-7.8193078855478348E-01
-7.7722773197589412E-01
-7.7444730880259660E-01
-7.6672830203115405E-01
-7.6408138997385799E-01
-7.5262090312029584E-01
-7.4871833300720392E-01
-7.3729994477112681E-01
-7.0253068562245991E-01
-6.9361765093142413E-01
-6.9046483758982236E-01
-6.8627546999574507E-01
-6.8402340773183357E-01
-6.8116324485377022E-01
-6.7915498363341587E-01
-6.7404392468096375E-01
-6.7311129920685764E-01
-6.7106837859788759E-01
-6.6935836159822637E-01
-6.6826504963073041E-01
-6.6648147785808087E-01
-6.6570013964571251E-01
-6.6182565991603426E-01
-6.6128900692304526E-01
-6.6025960645891923E-01
-6.5570029807842334E-01
-6.5268022055474506E-01
-6.4973705568191376E-01
-6.4827012054633182E-01
-6.4613073310430980E-01
-6.4424487992272761E-01
-6.4270406673804481E-01
-6.4133628335039139E-01
-6.4000781562814224E-01
-6.3808859153069020E-01
-6.3426108858111530E-01
-6.3177382542968841E-01
-6.2806291046897045E-01
-6.2450566202026070E-01
-6.0988991672723747E-01
QETSC: Iter time (min)       =   5.63
QETSC: Iter time (max)       =   7.94
QETSC: Iter time (avg)       =   7.82
QETSC: Num. of conv. evals   =         129
QETSC: Eigenvalue (1)        =-2.02388806683E+00
QETSC: Eigenvalue (nocc)     =-6.09889916727E-01
QETSC: Max differrence       = 4.00384826089E-01
QETSC: Safe iteration        =      F
QETSC: Finished iter            3
 *****************************************************************
 QETSC: Estimated eigenvalues         =
-2.0095238095238095E+00
-1.9989417989417990E+00
-1.9883597883597883E+00
-1.9777777777777779E+00
-1.9751322751322753E+00
-1.9724867724867725E+00
-1.9698412698412699E+00
-1.9671957671957674E+00
-1.9645502645502646E+00
-1.9619047619047620E+00
-1.9592592592592595E+00
-1.9566137566137567E+00
-1.9539682539682541E+00
-1.9513227513227516E+00
-1.9486772486772488E+00
-1.9460317460317462E+00
-1.9435897435897438E+00
-1.9411477411477414E+00
-1.9387057387057389E+00
-1.9362637362637365E+00
-1.9338217338217341E+00
-1.9313797313797316E+00
-1.9289377289377292E+00
-1.9264957264957268E+00
-1.9240537240537243E+00
-1.9216117216117219E+00
-1.9191697191697195E+00
-1.9167277167277170E+00
-1.9142857142857146E+00
-1.9037037037037039E+00
-1.8931216931216934E+00
-1.8825396825396827E+00
-1.1206349206349209E+00
-1.1142857142857145E+00
-1.1079365079365082E+00
-1.1015873015873017E+00
-1.0952380952380953E+00
-1.0888888888888890E+00
-1.0860028860028861E+00
-1.0831168831168834E+00
-1.0802308802308804E+00
-1.0773448773448775E+00
-1.0744588744588746E+00
-1.0715728715728718E+00
-1.0686868686868689E+00
-1.0658008658008660E+00
-1.0629148629148630E+00
-1.0600288600288603E+00
-1.0571428571428574E+00
-1.0539682539682542E+00
-1.0507936507936511E+00
-1.0476190476190479E+00
-1.0444444444444447E+00
-1.0412698412698416E+00
-1.0380952380952384E+00
-1.0349206349206352E+00
-1.0317460317460321E+00
-1.0285714285714289E+00
-1.0253968253968258E+00
-1.0190476190476194E+00
-1.0126984126984131E+00
-1.0063492063492065E+00
-1.0000000000000002E+00
-9.9365079365079390E-01
-8.9841269841269877E-01
-8.6666666666666692E-01
-8.6031746031746059E-01
-8.5396825396825415E-01
-8.4761904761904783E-01
-8.4126984126984139E-01
-8.3492063492063506E-01
-8.2962962962962983E-01
-8.2433862433862448E-01
-8.1904761904761925E-01
-8.1375661375661401E-01
-8.0846560846560866E-01
-8.0317460317460343E-01
-7.9863945578231321E-01
-7.9410430839002299E-01
-7.8956916099773278E-01
-7.8503401360544245E-01
-7.8049886621315223E-01
-7.7596371882086201E-01
-7.7142857142857180E-01
-7.6689342403628158E-01
-7.6235827664399125E-01
-7.5782312925170103E-01
-7.5328798185941070E-01
-7.4875283446712049E-01
-7.4421768707483016E-01
-7.3968253968253994E-01
-7.3333333333333361E-01
-7.2698412698412718E-01
-7.2063492063492085E-01
-7.1428571428571441E-01
-7.0793650793650809E-01
-6.9206349206349227E-01
-6.7619047619047645E-01
-6.7089947089947122E-01
-6.6560846560846587E-01
-6.6031746031746064E-01
-6.5502645502645540E-01
-6.4973544973545005E-01
-6.4444444444444482E-01
-6.4200244200244239E-01
-6.3956043956043995E-01
-6.3711843711843752E-01
-6.3467643467643498E-01
-6.3223443223443254E-01
-6.2979242979243011E-01
-6.2735042735042768E-01
-6.2490842490842524E-01
-6.2246642246642281E-01
-6.2002442002442026E-01
-6.1758241758241783E-01
-6.1514041514041540E-01
-6.1269841269841296E-01
-6.0981240981241003E-01
-6.0692640692640720E-01
-6.0404040404040427E-01
-6.0115440115440133E-01
-5.9826839826839850E-01
-5.9538239538239557E-01
-5.9249639249639274E-01
-5.8961038961038981E-01
-5.8672438672438687E-01
-5.8383838383838405E-01
-2.0000000000000018E-01
 QETSC: Bins             =
              -Infinity
-2.0095238095238095E+00
-2.0010582010582012E+00
-1.9925925925925927E+00
-1.9841269841269842E+00
-1.9756613756613757E+00
-1.9671957671957672E+00
-1.9587301587301589E+00
-1.9502645502645504E+00
-1.9417989417989419E+00
-1.9333333333333333E+00
-1.9248677248677251E+00
-1.9164021164021166E+00
-1.9079365079365080E+00
-1.8994708994708995E+00
-1.8910052910052912E+00
-1.8825396825396827E+00
-1.1206349206349209E+00
-1.1010469436001353E+00
-1.0814589665653498E+00
-1.0618709895305642E+00
-1.0422830124957787E+00
-1.0226950354609932E+00
-1.0031070584262076E+00
-9.8351908139142208E-01
-9.6393110435663654E-01
-9.4434312732185099E-01
-9.2475515028706545E-01
-9.0516717325227991E-01
-8.8557919621749437E-01
-8.6599121918270883E-01
-8.4640324214792328E-01
-8.2681526511313774E-01
-8.0722728807835220E-01
-7.8763931104356666E-01
-7.6805133400878112E-01
-7.4846335697399557E-01
-7.2887537993921003E-01
-7.0928740290442449E-01
-6.8969942586963895E-01
-6.7011144883485341E-01
-6.5052347180006775E-01
-6.3093549476528221E-01
-6.1134751773049667E-01
-5.9175954069571113E-01
-5.7217156366092559E-01
-5.5258358662614004E-01
-5.3299560959135450E-01
-5.1340763255656896E-01
-4.9381965552178342E-01
-4.7423167848699788E-01
-4.5464370145221233E-01
-4.3505572441742679E-01
-4.1546774738264125E-01
-3.9587977034785571E-01
-3.7629179331307017E-01
-3.5670381627828462E-01
-3.3711583924349908E-01
-3.1752786220871354E-01
-2.9793988517392800E-01
-2.7835190813914246E-01
-2.5876393110435691E-01
-2.3917595406957137E-01
-2.1958797703478583E-01
-2.0000000000000018E-01
QETSC: Started iter            4
QETSC: Bin type used         =           3
QETSC: Buffer used           = 0.00000000000E+00
QETSC: EPS interval          = -Infinity,    -0.200
QETSC: Inertia type          =           1
 QETSC: Eigenvalues         =
-1.9987243972222233E+00
-1.9885256213665099E+00
-1.9827139796659914E+00
-1.9769874592703733E+00
-1.9754344778907591E+00
-1.9722913258447614E+00
-1.9707784368873791E+00
-1.9682221968934392E+00
-1.9666436350711245E+00
-1.9635526529088494E+00
-1.9588992280518438E+00
-1.9570764130503713E+00
-1.9547167144786972E+00
-1.9519699076259087E+00
-1.9460889198602733E+00
-1.9444127458962468E+00
-1.9409511011369982E+00
-1.9397537202852786E+00
-1.9371382251093436E+00
-1.9338265124616942E+00
-1.9326148271515764E+00
-1.9301035151445334E+00
-1.9272875375885048E+00
-1.9255550075340198E+00
-1.9240621167541379E+00
-1.9219153789466481E+00
-1.9188039140057034E+00
-1.9149828572316703E+00
-1.9113520382956732E+00
-1.9014463176928511E+00
-1.9000130432811166E+00
-1.8782514501763150E+00
-1.1053275580832862E+00
-1.1033689157555484E+00
-1.0997121291391994E+00
-1.0951371162837740E+00
-1.0910483693076507E+00
-1.0868149688548177E+00
-1.0856828395647651E+00
-1.0820833495360278E+00
-1.0814885225107260E+00
-1.0787670186987457E+00
-1.0708746661795785E+00
-1.0687510916279628E+00
-1.0668167695249653E+00
-1.0639211112750919E+00
-1.0612875086057283E+00
-1.0581039019390734E+00
-1.0570702728848984E+00
-1.0531556488114107E+00
-1.0475328610378218E+00
-1.0446222301522416E+00
-1.0420576843719389E+00
-1.0397747377736695E+00
-1.0380326959750392E+00
-1.0323716806518024E+00
-1.0316045385507246E+00
-1.0288277672393855E+00
-1.0229852199290506E+00
-1.0175238739133778E+00
-1.0115595273380571E+00
-1.0082387076679205E+00
-1.0043443839848032E+00
-9.9345495390391403E-01
-8.8017704572786293E-01
-8.6543672059396037E-01
-8.5696543436306083E-01
-8.4747379229178077E-01
-8.4124905197681488E-01
-8.3714198420523367E-01
-8.3329730165552240E-01
-8.2898929929601317E-01
-8.2691669695109016E-01
-8.2520396325350553E-01
-8.2373435767703007E-01
-8.0371203324738394E-01
-8.0144424241785139E-01
-7.9684867555600014E-01
-7.9371064955865400E-01
-7.8193966385421432E-01
-7.7841389385453075E-01
-7.7469049300924275E-01
-7.7262707114611495E-01
-7.6308647225172144E-01
-7.6224228681025097E-01
-7.5768724875650273E-01
-7.5401806301571483E-01
-7.5031228134391958E-01
-7.4641976124134157E-01
-7.4159726731759479E-01
-7.3843971198884262E-01
-7.2962497015318606E-01
-7.2777695653002161E-01
-7.1405071658127395E-01
-7.0814788852464727E-01
-6.9639160220377527E-01
-6.7668621261564266E-01
-6.6251929479664262E-01
-6.6009991986215699E-01
-6.5357796703416660E-01
-6.5127059793648145E-01
-6.4847294369785191E-01
-6.4575528930024184E-01
-6.4153323061216827E-01
-6.4052018882358552E-01
-6.3896539131843111E-01
-6.3573615358217361E-01
-6.3405910797872322E-01
-6.3326488002568837E-01
-6.2900360681618595E-01
-6.2724512813987410E-01
-6.2586571414435743E-01
-6.2414261460649001E-01
-6.1838082650881665E-01
-6.1559632760841865E-01
-6.1410026999285849E-01
-6.1035604042122782E-01
-6.0802136265387496E-01
-6.0734726813192064E-01
-6.0516425073917346E-01
-6.0370454454548494E-01
-6.0064454402244760E-01
-5.9936194867030934E-01
-5.9570120698798490E-01
-5.8949514002480663E-01
-5.8376945529651270E-01
-5.8221047857793562E-01
-5.5854921362851573E-01
QETSC: Iter time (min)       =   7.09
QETSC: Iter time (max)       =  10.48
QETSC: Iter time (avg)       =  10.32
QETSC: Num. of conv. evals   =         129
QETSC: Eigenvalue (1)        =-1.99872439722E+00
QETSC: Eigenvalue (nocc)     =-5.58549213629E-01
QETSC: Max differrence       = 5.13407030987E-02
QETSC: Safe iteration        =      F
QETSC: Finished iter            4
 *****************************************************************
 QETSC: Estimated eigenvalues         =
-2.0095238095238095E+00
-1.9777777777777779E+00
-1.9742504409171078E+00
-1.9707231040564375E+00
-1.9671957671957674E+00
-1.9636684303350971E+00
-1.9601410934744270E+00
-1.9566137566137567E+00
-1.9530864197530866E+00
-1.9495590828924163E+00
-1.9460317460317462E+00
-1.9428571428571431E+00
-1.9396825396825399E+00
-1.9365079365079367E+00
-1.9333333333333336E+00
-1.9301587301587304E+00
-1.9269841269841272E+00
-1.9238095238095241E+00
-1.9206349206349209E+00
-1.9174603174603178E+00
-1.9142857142857146E+00
-1.9107583774250443E+00
-1.9072310405643742E+00
-1.9037037037037039E+00
-1.9001763668430338E+00
-1.8966490299823635E+00
-1.8931216931216934E+00
-1.8895943562610231E+00
-1.8860670194003530E+00
-1.8825396825396827E+00
-1.8666666666666667E+00
-1.8507936507936509E+00
-1.1206349206349209E+00
-1.1100529100529102E+00
-1.0994708994708997E+00
-1.0888888888888890E+00
-1.0849206349206351E+00
-1.0809523809523811E+00
-1.0769841269841272E+00
-1.0730158730158732E+00
-1.0690476190476192E+00
-1.0650793650793653E+00
-1.0611111111111113E+00
-1.0571428571428574E+00
-1.0539682539682542E+00
-1.0507936507936511E+00
-1.0476190476190479E+00
-1.0444444444444447E+00
-1.0412698412698416E+00
-1.0380952380952384E+00
-1.0349206349206352E+00
-1.0317460317460321E+00
-1.0285714285714289E+00
-1.0253968253968258E+00
-1.0214285714285718E+00
-1.0174603174603178E+00
-1.0134920634920639E+00
-1.0095238095238099E+00
-1.0055555555555558E+00
-1.0015873015873018E+00
-9.9761904761904785E-01
-9.9365079365079390E-01
-9.8306878306878331E-01
-9.7248677248677262E-01
-8.9841269841269877E-01
-8.6666666666666692E-01
-8.5079365079365099E-01
-8.3492063492063506E-01
-8.3095238095238111E-01
-8.2698412698412715E-01
-8.2301587301587320E-01
-8.1904761904761925E-01
-8.1507936507936529E-01
-8.1111111111111134E-01
-8.0714285714285738E-01
-8.0317460317460343E-01
-7.9523809523809552E-01
-7.8730158730158761E-01
-7.7936507936507970E-01
-7.7142857142857180E-01
-7.6689342403628158E-01
-7.6235827664399125E-01
-7.5782312925170103E-01
-7.5328798185941070E-01
-7.4875283446712049E-01
-7.4421768707483016E-01
-7.3968253968253994E-01
-7.3514739229024972E-01
-7.3061224489795940E-01
-7.2607709750566918E-01
-7.2154195011337885E-01
-7.1700680272108863E-01
-7.1247165532879830E-01
-7.0793650793650809E-01
-6.9206349206349227E-01
-6.7619047619047645E-01
-6.6825396825396854E-01
-6.6031746031746064E-01
-6.5238095238095273E-01
-6.4444444444444482E-01
-6.4155844155844188E-01
-6.3867243867243906E-01
-6.3578643578643612E-01
-6.3290043290043319E-01
-6.3001443001443036E-01
-6.2712842712842742E-01
-6.2424242424242460E-01
-6.2135642135642166E-01
-6.1847041847041873E-01
-6.1558441558441590E-01
-6.1269841269841296E-01
-6.0981240981241003E-01
-6.0692640692640720E-01
-6.0404040404040427E-01
-6.0115440115440133E-01
-5.9826839826839850E-01
-5.9538239538239557E-01
-5.9249639249639274E-01
-5.8961038961038981E-01
-5.8672438672438687E-01
-5.8383838383838405E-01
-5.8095238095238111E-01
-5.7566137566137587E-01
-5.7037037037037053E-01
-5.6507936507936529E-01
-5.5978835978836006E-01
-5.5449735449735471E-01
-2.0000000000000018E-01
 QETSC: Bins             =
              -Infinity
-2.0095238095238095E+00
-1.9989417989417990E+00
-1.9883597883597883E+00
-1.9777777777777779E+00
-1.9671957671957672E+00
-1.9566137566137567E+00
-1.9460317460317460E+00
-1.9354497354497355E+00
-1.9248677248677248E+00
-1.9142857142857144E+00
-1.9037037037037037E+00
-1.8931216931216932E+00
-1.8825396825396825E+00
-1.8719576719576720E+00
-1.8613756613756616E+00
-1.8507936507936509E+00
-1.1206349206349209E+00
-1.1010469436001353E+00
-1.0814589665653498E+00
-1.0618709895305642E+00
-1.0422830124957787E+00
-1.0226950354609932E+00
-1.0031070584262076E+00
-9.8351908139142208E-01
-9.6393110435663654E-01
-9.4434312732185099E-01
-9.2475515028706545E-01
-9.0516717325227991E-01
-8.8557919621749437E-01
-8.6599121918270883E-01
-8.4640324214792328E-01
-8.2681526511313774E-01
-8.0722728807835220E-01
-7.8763931104356666E-01
-7.6805133400878112E-01
-7.4846335697399557E-01
-7.2887537993921003E-01
-7.0928740290442449E-01
-6.8969942586963895E-01
-6.7011144883485341E-01
-6.5052347180006775E-01
-6.3093549476528221E-01
-6.1134751773049667E-01
-5.9175954069571113E-01
-5.7217156366092559E-01
-5.5258358662614004E-01
-5.3299560959135450E-01
-5.1340763255656896E-01
-4.9381965552178342E-01
-4.7423167848699788E-01
-4.5464370145221233E-01
-4.3505572441742679E-01
-4.1546774738264125E-01
-3.9587977034785571E-01
-3.7629179331307017E-01
-3.5670381627828462E-01
-3.3711583924349908E-01
-3.1752786220871354E-01
-2.9793988517392800E-01
-2.7835190813914246E-01
-2.5876393110435691E-01
-2.3917595406957137E-01
-2.1958797703478583E-01
-2.0000000000000018E-01
QETSC: Started iter            5
QETSC: Bin type used         =           3
QETSC: Buffer used           = 0.00000000000E+00
[...]
       dfscf                      1      14.799    2.24
        MPI_SEND                 63       2.266    0.34
        MPI_RECV                 63       2.737    0.41
     overfsm                      1       0.239    0.04
     MolMec                       1       0.000    0.00
    state_analysis                1       0.047    0.01
    siesta_move                   1       0.000    0.00
   optical                        1       0.000    0.00
   MPI_BCAST                      3       0.000    0.00
   MPI_ALLGATHER                  2       0.004    0.00
   MPI_BARRIER                    2       0.163    0.02
  MPI_ALLGATHER                  56       0.065    0.01
  MPI_BCAST                       2       0.000    0.00
  MPI_RECV                        4       0.000    0.00
>> End of run:  25-SEP-2016   1:59:25
************************************************************************************************************************
***             WIDEN YOUR WINDOW TO 120 CHARACTERS.  Use 'enscript -r -fCourier9' to print this document            ***
************************************************************************************************************************

---------------------------------------------- PETSc Performance Summary: ----------------------------------------------

/home/keceli/lib/siesta-qetsc/Obj/siesta on a arch-gccopt named b444 with 64 processors, by keceli Sun Sep 25 01:59:25 2016
Using Petsc Development GIT revision: v3.7.3-1320-g04d0fa7  GIT Date: 2016-09-01 18:08:27 -0500

                         Max       Max/Min        Avg      Total 
Time (sec):           6.612e+02      1.00007   6.612e+02
Objects:              6.600e+02      1.55294   5.949e+02
Flops:                5.086e+10    537.22637   3.534e+10  2.262e+12
Flops/sec:            7.691e+07    537.24254   5.345e+07  3.421e+09
MPI Messages:         1.720e+02      1.15436   1.713e+02  1.096e+04
MPI Message Lengths:  1.206e+04      1.53815   6.949e+01  7.617e+05
MPI Reductions:       3.700e+02      1.00000

Flop counting convention: 1 flop = 1 real number operation of type (multiply/divide/add/subtract)
                            e.g., VecAXPY() for real vectors of length N --> 2N flops
                            and VecAXPY() for complex vectors of length N --> 8N flops

Summary of Stages:   ----- Time ------  ----- Flops -----  --- Messages ---  -- Message Lengths --  -- Reductions --
                        Avg     %Total     Avg     %Total   counts   %Total     Avg         %Total   counts   %Total 
 0:      Main Stage: 6.1138e-02   0.0%  0.0000e+00   0.0%  0.000e+00   0.0%  0.000e+00        0.0%  0.000e+00   0.0% 
 1:     siesta_init: 1.1734e+00   0.2%  0.0000e+00   0.0%  0.000e+00   0.0%  0.000e+00        0.0%  0.000e+00   0.0% 
 2:   siesta_forces: 7.3466e+01  11.1%  0.0000e+00   0.0%  0.000e+00   0.0%  0.000e+00        0.0%  0.000e+00   0.0% 
 3:    siesta_solve: 3.2198e-02   0.0%  0.0000e+00   0.0%  0.000e+00   0.0%  0.000e+00        0.0%  0.000e+00   0.0% 
 4:    siesta2qetsc: 1.7930e+00   0.3%  0.0000e+00   0.0%  8.064e+03  73.6%  6.790e+01       97.7%  8.500e+01  23.0% 
 5: qetsc_setup_eps: 1.3877e+01   2.1%  6.0586e+09   0.3%  0.000e+00   0.0%  0.000e+00        0.0%  6.800e+01  18.4% 
 6: qetsc_solve_eps: 1.2126e+02  18.3%  2.2560e+12  99.7%  2.898e+03  26.4%  1.586e+00        2.3%  1.800e+02  48.6% 
 7:   qetsc_eigvals: 1.5880e-03   0.0%  0.0000e+00   0.0%  0.000e+00   0.0%  0.000e+00        0.0%  0.000e+00   0.0% 
 8:   qetsc_density: 3.4398e+01   5.2%  0.0000e+00   0.0%  0.000e+00   0.0%  0.000e+00        0.0%  3.600e+01   9.7% 
10:     siesta_misc: 4.1478e+02  62.7%  0.0000e+00   0.0%  0.000e+00   0.0%  0.000e+00        0.0%  0.000e+00   0.0% 
11:     siesta_move: 3.0584e-03   0.0%  0.0000e+00   0.0%  0.000e+00   0.0%  0.000e+00        0.0%  0.000e+00   0.0% 
12: siesta_analysis: 2.3216e-02   0.0%  0.0000e+00   0.0%  0.000e+00   0.0%  0.000e+00        0.0%  0.000e+00   0.0% 
13:      siesta_end: 3.3335e-01   0.1%  0.0000e+00   0.0%  0.000e+00   0.0%  0.000e+00        0.0%  0.000e+00   0.0% 

------------------------------------------------------------------------------------------------------------------------
See the 'Profiling' chapter of the users' manual for details on interpreting output.
Phase summary info:
   Count: number of times phase was executed
   Time and Flops: Max - maximum over all processors
                   Ratio - ratio of maximum to minimum over all processors
   Mess: number of messages sent
   Avg. len: average message length (bytes)
   Reduct: number of global reductions
   Global: entire computation
   Stage: stages of a computation. Set stages with PetscLogStagePush() and PetscLogStagePop().
      %T - percent time in this phase         %F - percent flops in this phase
      %M - percent messages in this phase     %L - percent message lengths in this phase
      %R - percent reductions in this phase
   Total Mflop/s: 10e-6 * (sum of flops over all processors)/(max time over all processors)
------------------------------------------------------------------------------------------------------------------------
Event                Count      Time (sec)     Flops                             --- Global ---  --- Stage ---   Total
                   Max Ratio  Max     Ratio   Max  Ratio  Mess   Avg len Reduct  %T %F %M %L %R  %T %F %M %L %R Mflop/s
------------------------------------------------------------------------------------------------------------------------

--- Event Stage 0: Main Stage


--- Event Stage 1: siesta_init


--- Event Stage 2: siesta_forces


--- Event Stage 3: siesta_solve


--- Event Stage 4: siesta2qetsc

MatConvert            18 1.0 5.0660e-02 2.7 0.00e+00 0.0 0.0e+00 0.0e+00 0.0e+00  0  0  0  0  0   2  0  0  0  0     0
MatAssemblyBegin      19 1.0 7.4530e-01 4.8 0.00e+00 0.0 0.0e+00 0.0e+00 3.8e+01  0  0  0  0 10  17  0  0  0 45     0
MatAssemblyEnd        19 1.0 4.8399e-01 1.1 0.00e+00 0.0 8.1e+03 9.2e+01 4.5e+01  0  0 74 98 12  26  0100100 53     0
VecSet                19 1.0 6.0987e-02364.4 0.00e+00 0.0 0.0e+00 0.0e+00 0.0e+00  0  0  0  0  0   1  0  0  0  0     0

--- Event Stage 5: qetsc_setup_eps

MatConvert            17 1.0 1.2748e+00 2.2 0.00e+00 0.0 0.0e+00 0.0e+00 0.0e+00  0  0  0  0  0   7  0  0  0  0     0
MatScale              34 1.0 4.4470e-01 2.4 9.47e+07 1.0 0.0e+00 0.0e+00 0.0e+00  0  0  0  0  0   2100  0  0  0 13624
MatAssemblyBegin      17 1.0 1.0014e-0510.5 0.00e+00 0.0 0.0e+00 0.0e+00 0.0e+00  0  0  0  0  0   0  0  0  0  0     0
MatAssemblyEnd        17 1.0 9.7439e-02 1.5 0.00e+00 0.0 0.0e+00 0.0e+00 0.0e+00  0  0  0  0  0   1  0  0  0  0     0
MatGetSubMatrice      17 1.0 1.1851e+01 1.0 0.00e+00 0.0 0.0e+00 0.0e+00 6.8e+01  2  0  0  0 18  84  0  0  0100     0
MatAXPY               17 1.0 6.3234e-01 3.3 0.00e+00 0.0 0.0e+00 0.0e+00 0.0e+00  0  0  0  0  0   3  0  0  0  0     0
MatRedundantMat       17 1.0 1.3095e+01 1.1 0.00e+00 0.0 0.0e+00 0.0e+00 6.8e+01  2  0  0  0 18  91  0  0  0100     0

--- Event Stage 6: qetsc_solve_eps

MatMult             4433 0.0 5.3820e+01 0.0 4.94e+10 0.0 0.0e+00 0.0e+00 0.0e+00  5 97  0  0  0  29 97  0  0  0 40784
MatSolve            1551 0.0 1.9780e+01 0.0 0.00e+00 0.0 0.0e+00 0.0e+00 0.0e+00  2  0  0  0  0  11  0  0  0  0     0
MatCholFctrSym         1 1.0 1.7259e+00 1.5 0.00e+00 0.0 0.0e+00 0.0e+00 0.0e+00  0  0  0  0  0   1  0  0  0  0     0
MatCholFctrNum        23 1.3 1.1175e+01 1.4 0.00e+00 0.0 0.0e+00 0.0e+00 0.0e+00  2  0  0  0  0   9  0  0  0  0     0
MatCopy               22 1.3 5.9517e+00 1.4 0.00e+00 0.0 0.0e+00 0.0e+00 0.0e+00  1  0  0  0  0   5  0  0  0  0     0
MatConvert             3 1.0 1.8144e-01 1.6 0.00e+00 0.0 0.0e+00 0.0e+00 0.0e+00  0  0  0  0  0   0  0  0  0  0     0
MatAssemblyBegin      47 1.3 1.7643e-05 5.7 0.00e+00 0.0 0.0e+00 0.0e+00 0.0e+00  0  0  0  0  0   0  0  0  0  0     0
MatAssemblyEnd        47 1.3 3.5593e-01 1.6 0.00e+00 0.0 0.0e+00 0.0e+00 0.0e+00  0  0  0  0  0   0  0  0  0  0     0
MatGetRow         198016 1.3 1.9342e-02 1.4 0.00e+00 0.0 0.0e+00 0.0e+00 0.0e+00  0  0  0  0  0   0  0  0  0  0     0
MatGetRowIJ            1 1.0 1.4496e-04152.0 0.00e+00 0.0 0.0e+00 0.0e+00 0.0e+00  0  0  0  0  0   0  0  0  0  0     0
MatGetSubMatrice       2 1.0 1.9051e+00 1.0 0.00e+00 0.0 0.0e+00 0.0e+00 8.0e+00  0  0  0  0  2   2  0  0  0  4     0
MatGetOrdering         1 1.0 6.3801e-0412.1 0.00e+00 0.0 0.0e+00 0.0e+00 0.0e+00  0  0  0  0  0   0  0  0  0  0     0
MatZeroEntries        22 1.3 3.3525e-01 1.3 0.00e+00 0.0 0.0e+00 0.0e+00 0.0e+00  0  0  0  0  0   0  0  0  0  0     0
MatAXPY               23 1.3 8.2583e+00 1.4 0.00e+00 0.0 0.0e+00 0.0e+00 0.0e+00  1  0  0  0  0   6  0  0  0  0     0
MatRedundantMat        2 1.0 1.9960e+00 1.0 0.00e+00 0.0 0.0e+00 0.0e+00 8.0e+00  0  0  0  0  2   2  0  0  0  4     0
VecDot                93 0.0 6.2799e-04 0.0 5.42e+05 0.0 0.0e+00 0.0e+00 0.0e+00  0  0  0  0  0   0  0  0  0  0 21401
VecCopy               18 0.0 4.7684e-05 0.0 0.00e+00 0.0 0.0e+00 0.0e+00 0.0e+00  0  0  0  0  0   0  0  0  0  0     0
VecSet              171423.5 2.3911e-0215.4 0.00e+00 0.0 0.0e+00 0.0e+00 0.0e+00  0  0  0  0  0   0  0  0  0  0     0
VecSetRandom          18 0.0 2.2468e-02 0.0 0.00e+00 0.0 0.0e+00 0.0e+00 0.0e+00  0  0  0  0  0   0  0  0  0  0     0
EPSSetUp              23 1.0 3.2463e+01 1.0 0.00e+00 0.0 2.9e+03 6.0e+00 7.2e+01  5  0 26  2 19  26  0100100 40     0
EPSSolve              18 1.0 1.1143e+02 1.0 5.08e+10 0.0 2.3e+03 6.0e+00 1.5e+02 17100 21  2 39  91100 78 78 81 20245
STSetUp               41 1.0 2.1188e+01 1.1 0.00e+00 0.0 0.0e+00 0.0e+00 2.0e+00  3  0  0  0  1  16  0  0  0  1     0
STApply             1551 0.0 3.8708e+01 0.0 1.73e+10 0.0 0.0e+00 0.0e+00 0.0e+00  4 35  0  0  0  21 35  0  0  0 20164
STMatSolve          1551 0.0 1.9839e+01 0.0 0.00e+00 0.0 0.0e+00 0.0e+00 0.0e+00  2  0  0  0  0  11  0  0  0  0     0
KSPSetUp              23 1.3 3.6716e-05 9.1 0.00e+00 0.0 0.0e+00 0.0e+00 0.0e+00  0  0  0  0  0   0  0  0  0  0     0
KSPSolve            1551 0.0 1.9812e+01 0.0 0.00e+00 0.0 0.0e+00 0.0e+00 0.0e+00  2  0  0  0  0  11  0  0  0  0     0
PCSetUp               23 1.3 1.2897e+01 1.3 0.00e+00 0.0 0.0e+00 0.0e+00 0.0e+00  2  0  0  0  0  10  0  0  0  0     0
PCApply             1551 0.0 1.9783e+01 0.0 0.00e+00 0.0 0.0e+00 0.0e+00 0.0e+00  2  0  0  0  0  11  0  0  0  0     0
BVCreate              3913.0 7.3622e-02 1.4 0.00e+00 0.0 0.0e+00 0.0e+00 6.0e+00  0  0  0  0  2   0  0  0  0  3     0
BVCopy                18 0.0 7.0810e-05 0.0 0.00e+00 0.0 0.0e+00 0.0e+00 0.0e+00  0  0  0  0  0   0  0  0  0  0     0
BVMultVec           2837 0.0 1.3928e-01 0.0 6.75e+08 0.0 0.0e+00 0.0e+00 0.0e+00  0  1  0  0  0   0  1  0  0  0 211054
BVMultInPlace         18 0.0 1.0853e-02 0.0 1.90e+08 0.0 0.0e+00 0.0e+00 0.0e+00  0  0  0  0  0   0  0  0  0  0 116252
BVDotVec            2837 0.0 3.4998e+01 0.0 3.23e+10 0.0 0.0e+00 0.0e+00 0.0e+00  3 63  0  0  0  18 63  0  0  0 40542
BVOrthogonalizeV    1458 0.0 3.5147e+01 0.0 3.30e+10 0.0 0.0e+00 0.0e+00 0.0e+00  3 64  0  0  0  18 64  0  0  0 41208
BVScale             1551 0.0 4.3805e-03 0.0 4.52e+06 0.0 0.0e+00 0.0e+00 0.0e+00  0  0  0  0  0   0  0  0  0  0 46600
BVNormVec             93 0.0 8.6108e-01 0.0 1.04e+09 0.0 0.0e+00 0.0e+00 0.0e+00  0  1  0  0  0   0  1  0  0  0 29859
BVSetRandom           18 0.0 2.4448e-02 0.0 0.00e+00 0.0 0.0e+00 0.0e+00 0.0e+00  0  0  0  0  0   0  0  0  0  0     0
DSSolve               18 0.0 1.4102e-02 0.0 0.00e+00 0.0 0.0e+00 0.0e+00 0.0e+00  0  0  0  0  0   0  0  0  0  0     0
DSVectors           1440 0.0 2.7156e-04 0.0 0.00e+00 0.0 0.0e+00 0.0e+00 0.0e+00  0  0  0  0  0   0  0  0  0  0     0
DSOther               18 0.0 1.9045e-03 0.0 0.00e+00 0.0 0.0e+00 0.0e+00 0.0e+00  0  0  0  0  0   0  0  0  0  0     0

--- Event Stage 7: qetsc_eigvals


--- Event Stage 8: qetsc_density

MatConvert            36 1.0 2.1080e+00 1.2 0.00e+00 0.0 0.0e+00 0.0e+00 0.0e+00  0  0  0  0  0   5  0  0  0  0     0
MatGetValues        1656 3.3 1.6873e-01 3.7 0.00e+00 0.0 0.0e+00 0.0e+00 0.0e+00  0  0  0  0  0   0  0  0  0  0     0
VecCopy               93 0.0 1.2882e-03 0.0 0.00e+00 0.0 0.0e+00 0.0e+00 0.0e+00  0  0  0  0  0   0  0  0  0  0     0
VecSet                18 1.0 1.1277e-04 1.5 0.00e+00 0.0 0.0e+00 0.0e+00 0.0e+00  0  0  0  0  0   0  0  0  0  0     0
BVCopy                93 0.0 1.5810e-03 0.0 0.00e+00 0.0 0.0e+00 0.0e+00 0.0e+00  0  0  0  0  0   0  0  0  0  0     0

--- Event Stage 9: Unknown


--- Event Stage 10: siesta_misc


--- Event Stage 11: siesta_move


--- Event Stage 12: siesta_analysis


--- Event Stage 13: siesta_end

------------------------------------------------------------------------------------------------------------------------

Memory usage is given in bytes:

Object Type          Creations   Destructions     Memory  Descendants' Mem.
Reports information only for process 0.

--- Event Stage 0: Main Stage


--- Event Stage 1: siesta_init


--- Event Stage 2: siesta_forces


--- Event Stage 3: siesta_solve


--- Event Stage 4: siesta2qetsc

              Matrix    57              0            0     0.
              Vector    20              1         1648     0.
      Vector Scatter    19              0            0     0.
           Index Set     2              2        12760     0.

--- Event Stage 5: qetsc_setup_eps

              Matrix    34             51     18126012     0.
              Vector     0             17       406504     0.
      Vector Scatter     0             17        18224     0.
           Index Set    34              0            0     0.
          EPS Solver     1              0            0     0.
  Spectral Transform     1              0            0     0.
       Krylov Solver     1              0            0     0.
      Preconditioner     1              0            0     0.
       Basis Vectors     1              0            0     0.
         PetscRandom     1              0            0     0.
              Region     1              0            0     0.
       Direct Solver     1              0            0     0.

--- Event Stage 6: qetsc_solve_eps

              Matrix    28             22   1471199756     0.
              Vector   130            113      1853712     0.
           Index Set     8              3        18224     0.
          EPS Solver     1              0            0     0.
  Spectral Transform     1              0            0     0.
       Krylov Solver     1              0            0     0.
      Preconditioner     1              0            0     0.
       Basis Vectors    24             22        23232     0.
              Region     1              0            0     0.
       Direct Solver     1              0            0     0.

--- Event Stage 7: qetsc_eigvals


--- Event Stage 8: qetsc_density

              Matrix    36             36   2407417920     0.
              Vector    18             18       446832     0.

--- Event Stage 9: Unknown


--- Event Stage 10: siesta_misc


--- Event Stage 11: siesta_move


--- Event Stage 12: siesta_analysis


--- Event Stage 13: siesta_end

              Viewer     1              0            0     0.
========================================================================================================================
Average time to get PetscTime(): 0.
Average time for MPI_Barrier(): 4.68254e-05
Average time for zero size MPI_Send(): 0.000152156
#PETSc Option Table entries:
-eps_interval -2.2,-0.2
-eps_krylovschur_detect_zeros 0
-eps_krylovschur_partitions 64
-ioptbin 3
-ioptinertia 1
-ioptleft 2
-isglobal 0
-log_view
-mat_mumps_cntl_3 1e-12
-mat_mumps_icntl_13 1
-mat_mumps_icntl_24 1
-mat_mumps_icntl_28 1
-roptbuffer 0.05
-roptdiff 0.05
-roptleft -2.2
-roptright -0.2
-st_pc_factor_mat_solver_package mkl_pardiso
-writeeigs 1
#End of PETSc Option Table entries
Compiled without FORTRAN kernels
Compiled with full precision matrices (default)
sizeof(short) 2 sizeof(int) 4 sizeof(long) 8 sizeof(void*) 8 sizeof(PetscScalar) 8 sizeof(PetscInt) 4
Configure options: --download-metis=1 --download-mumps=1 --download-parmetis=1 --download-ptscotch=1 --download-scalapack=1 --with-blas-lapack-dir=/soft/mkl/11.1.0.080/mkl/ --with-debugging=0 --with-mkl_pardiso-dir=/soft/mkl/11.1.0.080/mkl/ --with-shared-libraries=0 -COPTFLAGS="-O3 -g" -CXXOPTFLAGS="-O3 -g" -FOPTFLAGS="-O3 -g" CC=mpicc CXX=mpicxx FC=mpif90 PETSC_ARCH=arch-gccopt
-----------------------------------------
Libraries compiled on Fri Sep 23 14:58:29 2016 on blogin3 
Machine characteristics: Linux-2.6.32-642.1.1.el6.x86_64-x86_64-with-centos-6.7-Final
Using PETSc directory: /home/keceli/lib/petsc
Using PETSc arch: arch-gccopt
-----------------------------------------

Using C compiler: mpicc   -Wall -Wwrite-strings -Wno-strict-aliasing -Wno-unknown-pragmas -fvisibility=hidden -O3 -g  ${COPTFLAGS} ${CFLAGS}
Using Fortran compiler: mpif90  -Wall -ffree-line-length-0 -Wno-unused-dummy-argument -O3 -g   ${FOPTFLAGS} ${FFLAGS} 
-----------------------------------------

Using include paths: -I/home/keceli/lib/petsc/arch-gccopt/include -I/home/keceli/lib/petsc/include -I/home/keceli/lib/petsc/include -I/home/keceli/lib/petsc/arch-gccopt/include -I/soft/mkl/11.1.0.080/mkl/include -I/blues/gpfs/home/software/spack/opt/spack/linux-x86_64/gcc-5.3.0/mpich-3.2-wraqufukmp7yzyl6a644pnmda7wkg7w7/include
-----------------------------------------

Using C linker: mpicc
Using Fortran linker: mpif90
Using libraries: -Wl,-rpath,/home/keceli/lib/petsc/arch-gccopt/lib -L/home/keceli/lib/petsc/arch-gccopt/lib -lpetsc -Wl,-rpath,/home/keceli/lib/petsc/arch-gccopt/lib -L/home/keceli/lib/petsc/arch-gccopt/lib -lcmumps -ldmumps -lsmumps -lzmumps -lmumps_common -lpord -lscalapack -Wl,-rpath,/soft/mkl/11.1.0.080/mkl/lib/intel64 -L/soft/mkl/11.1.0.080/mkl/lib/intel64 -lmkl_intel_lp64 -lmkl_core -lmkl_intel_thread -liomp5 -ldl -lpthread -lm -lparmetis -lmetis -lptesmumps -lptscotch -lptscotcherr -lscotch -lscotcherr -lX11 -lhwloc -lpthread -lssl -lcrypto -lm -L/blues/gpfs/home/software/spack/opt/spack/linux-x86_64/gcc-4.4.7/gcc-5.3.0-fygfl7rvyuiteto27dlhmilp5cstw2o2/lib64 -L/blues/gpfs/home/software/spack/opt/spack/linux-x86_64/gcc-5.3.0/mpich-3.2-wraqufukmp7yzyl6a644pnmda7wkg7w7/lib -L/blues/gpfs/home/software/spack/opt/spack/linux-x86_64/gcc-4.4.7/gcc-5.3.0-fygfl7rvyuiteto27dlhmilp5cstw2o2/lib64/gcc/x86_64-unknown-linux-gnu/5.3.0 -L/soft/intel/13.1.3/lib/intel64 -L/soft/intel/13.1.3/ipp/lib/intel64 -L/soft/intel/13.1.3/tbb/lib/intel64/gcc4.4 -L/soft/lcrc/lib -lmpifort -lgfortran -lm -Wl,-rpath,/blues/gpfs/home/software/spack/opt/spack/linux-x86_64/gcc-4.4.7/gcc-5.3.0-fygfl7rvyuiteto27dlhmilp5cstw2o2/lib:/blues/gpfs/home/software/spack/opt/spack/linux-x86_64/gcc-4.4.7/gcc-5.3.0-fygfl7rvyuiteto27dlhmilp5cstw2o2/lib64 -Wl,-rpath,/blues/gpfs/home/software/spack/opt/spack/linux-x86_64/gcc-5.3.0/mpich-3.2-wraqufukmp7yzyl6a644pnmda7wkg7w7/lib -lgfortran -lm -lquadmath -lm -lmpicxx -lstdc++ -lrt -lm -lpthread -lz -Wl,-rpath,/blues/gpfs/home/software/spack/opt/spack/linux-x86_64/gcc-4.4.7/gcc-5.3.0-fygfl7rvyuiteto27dlhmilp5cstw2o2/lib:/blues/gpfs/home/software/spack/opt/spack/linux-x86_64/gcc-4.4.7/gcc-5.3.0-fygfl7rvyuiteto27dlhmilp5cstw2o2/lib64 -L/blues/gpfs/home/software/spack/opt/spack/linux-x86_64/gcc-5.3.0/mpich-3.2-wraqufukmp7yzyl6a644pnmda7wkg7w7/lib -L/blues/gpfs/home/software/spack/opt/spack/linux-x86_64/gcc-4.4.7/gcc-5.3.0-fygfl7rvyuiteto27dlhmilp5cstw2o2/lib64/gcc/x86_64-unknown-linux-gnu/5.3.0 -L/blues/gpfs/home/software/spack/opt/spack/linux-x86_64/gcc-4.4.7/gcc-5.3.0-fygfl7rvyuiteto27dlhmilp5cstw2o2/lib64 -L/soft/intel/13.1.3/lib/intel64 -L/soft/intel/13.1.3/ipp/lib/intel64 -L/soft/intel/13.1.3/tbb/lib/intel64/gcc4.4 -L/soft/lcrc/lib -L/blues/gpfs/home/software/spack/opt/spack/linux-x86_64/gcc-4.4.7/gcc-5.3.0-fygfl7rvyuiteto27dlhmilp5cstw2o2/lib64 -ldl -Wl,-rpath,/blues/gpfs/home/software/spack/opt/spack/linux-x86_64/gcc-5.3.0/mpich-3.2-wraqufukmp7yzyl6a644pnmda7wkg7w7/lib -lmpi -lgcc_s -ldl 
-----------------------------------------

