s.runSiesta: Submission time = 30s21m21h
s.runSiesta: Job name = q32_b312_s64_n64
s.runSiesta: Number of ranks = 64
s.runSiesta: Number of slices = 64
30s21m21h
-bintype 3
-ioptinertia 1
-ioptleft 2
-isglobal 0
-roptleft -2.3
-roptright 0.
-writeeigs 1
-roptbuffer 0.1
-roptdiff 0.01
# A chain of identical atoms (instead of an xyz file) can be specified with the following options
#-N 10 # Number of atoms
#-Z 8 # Atomic number
#-c 32 # Maximum number of interactions of an atom

# A petsc matrix (binary) can be given
#-method file
#-fA '/Volumes/s/matrices/petscbinary/graphene_xxs_A'
#-fB '/Volumes/s/matrices/petscbinary/graphene_xxs_B'
#-scfthresh 1.e-3

#PETSc options

-log_view
#-mat_mumps_icntl_13 1 #turn off scaLAPACK for matrix inertia
#-mat_mumps_icntl_24 1 #null pivot row detection for matrix inertia
#-mat_mumps_icntl_23 0
-mat_mumps_icntl_28 1
#-mat_mumps_icntl_28 2
#-mat_mumps_icntl_29 1 # ptscotch
#-mat_mumps_icntl_29 2 # parmetis
#-malloc_info
#-mat_view ::ascii_info
#-mat_getrow_uppertriangular 1
#-st_type sinvert
#-st_ksp_type preonly
#-st_pc_type cholesky
#-st_pc_factor_mat_solver_package mumps
-st_pc_factor_mat_solver_package mkl_pardiso
#SLEPc options
#-eps_view
#-eps_view_values
#-eps_krylovschur_partitions 1
-eps_krylovschur_nev 120
-eps_interval -2.3,0.
#-eps_tol  1.e-8
-eps_krylovschur_detect_zeros 0
#-eps_purify 1
SystemName liquid_H2O_32
SystemLabel H2O_32

UseTreeTimer .true.
DM.MixingWeight 0.3
DM.NumberPulay 3

SolutionMethod  slepc1 #slepc0 for the older method
#SolutionMethod diagon
#BlockSize 23
WriteDM .false.
WriteDM.NetCDF .false.
WriteDMHS.NetCDF .false.
LongOutput .false.
#MaxSCFIterations 1
##################################################
# Do not change below this line                  #
##################################################

%block SuperCell
1 0 0
0 1 0
0 0 1
%endblock SuperCell

NumberOfAtoms 96
NumberOfSpecies 2
#MaxSCFIterations 1

xc.functional GGA
xc.authors PBE 
MeshCutoff 150.0 Ry

%block ChemicalSpeciesLabel
  1   8  O
  2   1  H  
%endblock ChemicalSpeciesLabel

#%block AtomicMass
#  2   2.0
#%endblock AtomicMass

%block PAO.Basis # qz+tp+dp'
O 4
n=2 0 4 E 50.0 8.0
 10.0 5.0 3.5 2.0
n=2 1 4 E 10.0 8.0
 10.0 5.0 3.5 2.0
n=3 2 3 E 40.0 9.0 Q 6.0 0.00
 10.0 2.0 3.0
n=4 3 2 E 50.0 9.0 Q 17.0 0.40
 10.0 1.7
H 3
n=1 0 4 E 50.0 9.0
 10.0 5.0 3.5 2.0
n=2 1 3 E 50.0 9.0 Q 3.5 0.00
 10.0 2.0 4.0
n=3 2 2 E 50.0 9.0 Q 16.0 0.80
 10.0 2.0
%endblock PAO.Basis

LatticeConstant 9.856391407574419 Ang
%block LatticeVectors   
  1.0  0.0  0.0
  0.0  1.0  0.0
  0.0  0.0  1.0
%endblock LatticeVectors   

AtomicCoordinatesFormat NotScaledCartesianAng
%block AtomicCoordinatesAndAtomicSpecies < coord32.data

Siesta Version: siesta-trunk-492
Architecture  : x86_64-unknown-linux-gnu--unknown
Compiler flags: mpif90 -g -O3 -I/home/keceli/lib/petsc/include -I/home/keceli/lib/petsc/arch--gccopt/include -I/home/keceli/lib/slepc/arch-gccopt/include -I/home/keceli/lib/slepc/include -I/soft/mkl/11.1.0.080/mkl/include -I/blues/gpfs/home/software/spack/opt/spack/linux-x86_64/gcc-5.3.0/mpich-3.2-wraqufukmp7yzyl6a644pnmda7wkg7w7/include
PP flags      : -DMPI -DMPI_TIMING -DFC_HAVE_FLUSH -DFC_HAVE_ABORT 
PARALLEL version

* Running on   64 nodes in parallel
>> Start of run:  23-SEP-2016  21:21:32

                           ***********************       
                           *  WELCOME TO SIESTA  *       
                           ***********************       
WARNING: Siesta is reading its input from file INPUT_DEBUG

reinit: -----------------------------------------------------------------------
reinit: System Name: liquid_H2O_32
reinit: -----------------------------------------------------------------------
reinit: System Label: H2O_32                                                      
reinit: -----------------------------------------------------------------------

initatom: Reading input for the pseudopotentials and atomic orbitals ----------
Species number:   1 Atomic number:    8 Label: O
Species number:   2 Atomic number:    1 Label: H

Ground state valence configuration:   2s02  2p04
Reading pseudopotential information in formatted form from O.psf

Valence configuration for pseudopotential generation:
2s( 2.00) rc: 1.14
2p( 4.00) rc: 1.14
3d( 0.00) rc: 1.14
4f( 0.00) rc: 1.14
Ground state valence configuration:   1s01
Reading pseudopotential information in formatted form from H.psf

Valence configuration for pseudopotential generation:
1s( 0.60) rc: 1.25
2p( 0.00) rc: 1.25
3d( 0.00) rc: 1.25
4f( 0.00) rc: 1.25
For O, standard SIESTA heuristics set lmxkb to 4
 (one more than the basis l, including polarization orbitals).
Use PS.lmax or PS.KBprojectors blocks to override.
Warning: For O lmxkb would have been set to 4
Setting it to maximum value of 3 (f projector)
For H, standard SIESTA heuristics set lmxkb to 3
 (one more than the basis l, including polarization orbitals).
Use PS.lmax or PS.KBprojectors blocks to override.

<basis_specs>
===============================================================================
O                    Z=   8    Mass=  16.000        Charge= 0.17977+309
Lmxo=3 Lmxkb= 3    BasisType=split      Semic=F
L=0  Nsemic=0  Cnfigmx=2
          n=1  nzeta=4  polorb=0
            splnorm:   0.15000    
               vcte:    50.000    
               rinn:    8.0000    
               qcoe:    0.0000    
               qyuk:    0.0000    
               qwid:   0.10000E-01
                rcs:    10.000      5.0000      3.5000      2.0000    
            lambdas:    1.0000      1.0000      1.0000      1.0000    
L=1  Nsemic=0  Cnfigmx=2
          n=1  nzeta=4  polorb=0
            splnorm:   0.15000    
               vcte:    10.000    
               rinn:    8.0000    
               qcoe:    0.0000    
               qyuk:    0.0000    
               qwid:   0.10000E-01
                rcs:    10.000      5.0000      3.5000      2.0000    
            lambdas:    1.0000      1.0000      1.0000      1.0000    
L=2  Nsemic=0  Cnfigmx=3
          n=1  nzeta=3  polorb=0
            splnorm:   0.15000    
               vcte:    40.000    
               rinn:    9.0000    
               qcoe:    6.0000    
               qyuk:    0.0000    
               qwid:   0.10000E-01
                rcs:    10.000      2.0000      3.0000    
            lambdas:    1.0000      1.0000      1.0000    
L=3  Nsemic=0  Cnfigmx=4
          n=1  nzeta=2  polorb=0
            splnorm:   0.15000    
               vcte:    50.000    
               rinn:    9.0000    
               qcoe:    17.000    
               qyuk:   0.40000    
               qwid:   0.10000E-01
                rcs:    10.000      1.7000    
            lambdas:    1.0000      1.0000    
-------------------------------------------------------------------------------
L=0  Nkbl=1  erefs: 0.17977+309
L=1  Nkbl=1  erefs: 0.17977+309
L=2  Nkbl=1  erefs: 0.17977+309
L=3  Nkbl=1  erefs: 0.17977+309
===============================================================================
</basis_specs>

atom: Called for O                     (Z =   8)

read_vps: Pseudopotential generation method:
read_vps: ATM3      Troullier-Martins                       
Total valence charge:    6.00000

read_vps: Pseudopotential includes a core correction:
read_vps: Pseudo-core for xc-correction

xc_check: Exchange-correlation functional:
xc_check: GGA Perdew, Burke & Ernzerhof 1996
V l=0 = -2*Zval/r beyond r=  1.1278
V l=1 = -2*Zval/r beyond r=  1.1278
V l=2 = -2*Zval/r beyond r=  1.1278
V l=3 = -2*Zval/r beyond r=  1.1278
All V_l potentials equal beyond r=  1.1278
This should be close to max(r_c) in ps generation
All pots = -2*Zval/r beyond r=  1.1278

VLOCAL1: 99.0% of the norm of Vloc inside     34.126 Ry
VLOCAL1: 99.9% of the norm of Vloc inside     77.774 Ry
atom: Maximum radius for 4*pi*r*r*local-pseudopot. charge    1.37759
atom: Maximum radius for r*vlocal+2*Zval:    1.18566
GHOST: No ghost state for L =  0
GHOST: No ghost state for L =  1
GHOST: No ghost state for L =  2
GHOST: No ghost state for L =  3

KBgen: Kleinman-Bylander projectors: 
   l= 0   rc=  1.262145   el= -1.757696   Ekb=  9.253654   kbcos=  0.328369
   l= 1   rc=  1.262145   el= -0.664256   Ekb= -7.897175   kbcos= -0.393093
   l= 2   rc=  1.343567   el=  0.002031   Ekb= -1.922379   kbcos= -0.003517
   l= 3   rc=  1.394919   el=  0.003153   Ekb= -0.738278   kbcos= -0.000358

KBgen: Total number of  Kleinman-Bylander projectors:   16
atom: -------------------------------------------------------------------------

atom: SANKEY-TYPE ORBITALS:
atom: Selected multiple-zeta basis: split     

SPLIT: Orbitals with angular momentum L= 0

SPLIT: Basis orbitals for state 2s

   izeta = 1
                 lambda =    1.000000
                     rc =   10.181049
                 energy =   -1.757767
                kinetic =    1.546187
    potential(screened) =   -3.303954
       potential(ionic) =  -11.175858

   izeta = 2
                 rmatch =    5.055603
              splitnorm =    0.001043
                 energy =   -1.756217
* WARNING: effective split_norm is quite small. Orbitals will be very similar.
                kinetic =    1.590301
    potential(screened) =   -3.346518
       potential(ionic) =  -11.267994

   izeta = 3
                 rmatch =    3.562532
              splitnorm =    0.023118
                 energy =   -1.724097
* WARNING: effective split_norm is quite small. Orbitals will be very similar.
                kinetic =    1.812689
    potential(screened) =   -3.536786
       potential(ionic) =  -11.661476

   izeta = 4
                 rmatch =    2.004519
              splitnorm =    0.368983
                 energy =   -0.954778
                kinetic =    3.368396
    potential(screened) =   -4.323174
       potential(ionic) =  -13.178438

SPLIT: Orbitals with angular momentum L= 1

SPLIT: Basis orbitals for state 2p

   izeta = 1
                 lambda =    1.000000
                     rc =   10.181049
                 energy =   -0.664314
                kinetic =    4.714332
    potential(screened) =   -5.378647
       potential(ionic) =  -12.967201

   izeta = 2
                 rmatch =    5.055603
              splitnorm =    0.008251
                 energy =   -0.656950
* WARNING: effective split_norm is quite small. Orbitals will be very similar.
                kinetic =    4.990409
    potential(screened) =   -5.647359
       potential(ionic) =  -13.410842

   izeta = 3
                 rmatch =    3.562532
              splitnorm =    0.055493
                 energy =   -0.601809
                kinetic =    5.759592
    potential(screened) =   -6.361401
       potential(ionic) =  -14.486952

   izeta = 4
                 rmatch =    2.004519
              splitnorm =    0.336744
                 energy =    0.137909
                kinetic =    9.626817
    potential(screened) =   -9.488908
       potential(ionic) =  -18.577571

SPLIT: Orbitals with angular momentum L= 2

SPLIT: Basis orbitals for state 3d
Charge confinement: Q:     6.0000

   izeta = 1
                 lambda =    1.000000
                     rc =   10.181049
                 energy =    2.007653
                kinetic =    3.859620
    potential(screened) =   -1.851967
       potential(ionic) =   -7.803212

   izeta = 2
                 rmatch =    2.004519
              splitnorm =    0.637208
                 energy =    6.650039
                kinetic =   11.560126
    potential(screened) =   -4.910087
       potential(ionic) =  -13.161977

   izeta = 3
                 rmatch =    2.990543
              splitnorm =    0.263953
                 energy =    3.559882
                kinetic =    6.528543
    potential(screened) =   -2.968661
       potential(ionic) =  -10.107962

SPLIT: Orbitals with angular momentum L= 3

SPLIT: Basis orbitals for state 4f
Charge confinement: Q:    17.0000

   izeta = 1
                 lambda =    1.000000
                     rc =   10.181049
                 energy =    4.609453
                kinetic =    6.179676
    potential(screened) =   -1.570223
       potential(ionic) =   -7.410991

   izeta = 2
                 rmatch =    1.725262
              splitnorm =    0.752552
                 energy =   15.780374
                kinetic =   20.445907
    potential(screened) =   -4.665533
       potential(ionic) =  -12.986389
atom: Total number of Sankey-type orbitals: 45

atm_pop: Valence configuration (for local Pseudopot. screening):
 2s( 2.00)                                                            
 2p( 4.00)                                                            
 3d( 0.00)                                                            
 4f( 0.00)                                                            
Vna: chval, zval:    6.00000   6.00000

Vna:  Cut-off radius for the neutral-atom potential:  10.181049
comcore: Pseudo-core radius Rcore=  1.377587

atom: _________________________________________________________________________

<basis_specs>
===============================================================================
H                    Z=   1    Mass=  1.0100        Charge= 0.17977+309
Lmxo=2 Lmxkb= 3    BasisType=split      Semic=F
L=0  Nsemic=0  Cnfigmx=1
          n=1  nzeta=4  polorb=0
            splnorm:   0.15000    
               vcte:    50.000    
               rinn:    9.0000    
               qcoe:    0.0000    
               qyuk:    0.0000    
               qwid:   0.10000E-01
                rcs:    10.000      5.0000      3.5000      2.0000    
            lambdas:    1.0000      1.0000      1.0000      1.0000    
L=1  Nsemic=0  Cnfigmx=2
          n=1  nzeta=3  polorb=0
            splnorm:   0.15000    
               vcte:    50.000    
               rinn:    9.0000    
               qcoe:    3.5000    
               qyuk:    0.0000    
               qwid:   0.10000E-01
                rcs:    10.000      2.0000      4.0000    
            lambdas:    1.0000      1.0000      1.0000    
L=2  Nsemic=0  Cnfigmx=3
          n=1  nzeta=2  polorb=0
            splnorm:   0.15000    
               vcte:    50.000    
               rinn:    9.0000    
               qcoe:    16.000    
               qyuk:   0.80000    
               qwid:   0.10000E-01
                rcs:    10.000      2.0000    
            lambdas:    1.0000      1.0000    
-------------------------------------------------------------------------------
L=0  Nkbl=1  erefs: 0.17977+309
L=1  Nkbl=1  erefs: 0.17977+309
L=2  Nkbl=1  erefs: 0.17977+309
L=3  Nkbl=1  erefs: 0.17977+309
===============================================================================
</basis_specs>

atom: Called for H                     (Z =   1)

read_vps: Pseudopotential generation method:
read_vps: ATM 3.2.2 Troullier-Martins                       
Total valence charge:    0.60000

atom: Pseudopotential generated from an ionic configuration
atom: with net charge 0.40

xc_check: Exchange-correlation functional:
xc_check: GGA Perdew, Burke & Ernzerhof 1996
xc_check: WARNING: Pseudopotential generated with GGA revPBE functional
V l=0 = -2*Zval/r beyond r=  1.2343
V l=1 = -2*Zval/r beyond r=  1.2189
V l=2 = -2*Zval/r beyond r=  1.2189
V l=3 = -2*Zval/r beyond r=  1.2038
All V_l potentials equal beyond r=  1.2343
This should be close to max(r_c) in ps generation
All pots = -2*Zval/r beyond r=  1.2343

VLOCAL1: 99.0% of the norm of Vloc inside     28.493 Ry
VLOCAL1: 99.9% of the norm of Vloc inside     64.935 Ry
atom: Maximum radius for 4*pi*r*r*local-pseudopot. charge    1.45251
atom: Maximum radius for r*vlocal+2*Zval:    1.21892
GHOST: No ghost state for L =  0
GHOST: No ghost state for L =  1
GHOST: No ghost state for L =  2
GHOST: No ghost state for L =  3

KBgen: Kleinman-Bylander projectors: 
   l= 0   rc=  1.364359   el= -0.835481   Ekb= -2.050473   kbcos= -0.374935
   l= 1   rc=  1.434438   el= -0.083696   Ekb= -0.439790   kbcos= -0.040392
   l= 2   rc=  1.470814   el= -0.018512   Ekb= -0.135383   kbcos= -0.004767
   l= 3   rc=  1.508111   el= -0.010355   Ekb= -0.058408   kbcos= -0.000784

KBgen: Total number of  Kleinman-Bylander projectors:   16
atom: -------------------------------------------------------------------------

atom: SANKEY-TYPE ORBITALS:
atom: Selected multiple-zeta basis: split     

atom: basis set generated from the ionic configuration used
atom: to generate the pseudopotential

SPLIT: Orbitals with angular momentum L= 0

SPLIT: Basis orbitals for state 1s

   izeta = 1
                 lambda =    1.000000
                     rc =    9.971704
                 energy =   -0.835496
                kinetic =    1.039073
    potential(screened) =   -1.874569
       potential(ionic) =   -2.037700

   izeta = 2
                 rmatch =    5.075940
              splitnorm =    0.029735
                 energy =   -0.816789
* WARNING: effective split_norm is quite small. Orbitals will be very similar.
                kinetic =    1.252128
    potential(screened) =   -2.068916
       potential(ionic) =   -2.226196

   izeta = 3
                 rmatch =    3.487864
              splitnorm =    0.176430
                 energy =   -0.691872
                kinetic =    1.782572
    potential(screened) =   -2.474444
       potential(ionic) =   -2.615176

   izeta = 4
                 rmatch =    2.011274
              splitnorm =    0.598000
                 energy =    0.301433
                kinetic =    3.884637
    potential(screened) =   -3.583203
       potential(ionic) =   -3.672637

SPLIT: Orbitals with angular momentum L= 1

SPLIT: Basis orbitals for state 2p
Charge confinement: Q:     3.5000

   izeta = 1
                 lambda =    1.000000
                     rc =    9.971704
                 energy =    0.711778
                kinetic =    1.888566
    potential(screened) =   -1.176788
       potential(ionic) =   -1.368090

   izeta = 2
                 rmatch =    2.011274
              splitnorm =    0.691729
                 energy =    4.504307
                kinetic =    6.792143
    potential(screened) =   -2.287836
       potential(ionic) =   -2.425880

   izeta = 3
                 rmatch =    4.052721
              splitnorm =    0.089367
                 energy =    1.150580
                kinetic =    2.529067
    potential(screened) =   -1.378487
       potential(ionic) =   -1.566684

SPLIT: Orbitals with angular momentum L= 2

SPLIT: Basis orbitals for state 3d
Charge confinement: Q:    16.0000

   izeta = 1
                 lambda =    1.000000
                     rc =    9.971704
                 energy =    3.555650
                kinetic =    4.803510
    potential(screened) =   -1.247860
       potential(ionic) =   -1.438034

   izeta = 2
                 rmatch =    2.011274
              splitnorm =    0.525433
                 energy =    9.861824
                kinetic =   11.896576
    potential(screened) =   -2.034751
       potential(ionic) =   -2.186933
atom: Total number of Sankey-type orbitals: 23

atm_pop: Valence configuration (for local Pseudopot. screening):
 1s( 1.00)                                                            
 2p( 0.00)                                                            
 3d( 0.00)                                                            
Vna: chval, zval:    1.00000   1.00000

Vna:  Cut-off radius for the neutral-atom potential:   9.971704

atom: _________________________________________________________________________

prinput: Basis input ----------------------------------------------------------

PAO.BasisType split     

%block ChemicalSpeciesLabel
    1    8 O                       # Species index, atomic number, species label
    2    1 H                       # Species index, atomic number, species label
%endblock ChemicalSpeciesLabel

%block PAO.Basis                 # Define Basis set
O                     4                    # Species label, number of l-shells
 n=2   0   4                         # n, l, Nzeta 
  10.181      5.056      3.563      2.005   
   1.000      1.000      1.000      1.000   
 n=2   1   4                         # n, l, Nzeta 
  10.181      5.056      3.563      2.005   
   1.000      1.000      1.000      1.000   
 n=3   2   3                         # n, l, Nzeta 
  10.181      2.005      2.991   
   1.000      1.000      1.000   
 n=4   3   2                         # n, l, Nzeta 
  10.181      1.725   
   1.000      1.000   
H                     3   0.400            # Label, l-shells, ionic net charge
 n=1   0   4                         # n, l, Nzeta 
   9.972      5.076      3.488      2.011   
   1.000      1.000      1.000      1.000   
 n=2   1   3                         # n, l, Nzeta 
   9.972      2.011      4.053   
   1.000      1.000      1.000   
 n=3   2   2                         # n, l, Nzeta 
   9.972      2.011   
   1.000      1.000   
%endblock PAO.Basis

prinput: ----------------------------------------------------------------------

coor:   Atomic-coordinates input format  =     Cartesian coordinates
coor:                                          (in Angstroms)

siesta: Atomic coordinates (Bohr) and species
siesta:      3.11805   4.32747  14.55090  1        1
siesta:      2.19208   4.72432  16.06268  2        2
siesta:      1.88973   3.53379  13.47375  2        3
siesta:      9.78879  17.85792  16.42173  1        4
siesta:      8.31480  18.12248  15.40127  2        5
siesta:      9.69430  16.11937  16.91306  2        6
siesta:     12.94463   8.91951   5.14006  1        7
siesta:     12.90683   8.35259   3.42041  2        8
siesta:     14.45641   8.20141   5.82036  2        9
siesta:     10.58247   7.14317  18.42484  1       10
siesta:      9.95886   7.06758  16.72408  2       11
siesta:      9.08959   7.23765  19.42639  2       12
siesta:      0.66140   8.93841  13.68162  1       13
siesta:     -0.98266   9.67540  13.66273  2       14
siesta:      0.49133   7.46442  14.70208  2       15
siesta:      5.74477   0.49133  12.62338  1       16
siesta:      7.23765   0.73699  11.62182  2       17
siesta:      5.27234   2.15429  13.15250  2       18
siesta:      1.37950  17.76343  18.16028  1       19
siesta:     -0.05669  16.70519  17.85792  2       20
siesta:      1.09604  18.48153  19.78544  2       21
siesta:     11.50844  13.81390   5.53690  1       22
siesta:      9.76989  13.62493   5.02667  2       23
siesta:     12.01866  12.15094   6.00933  2       24
siesta:     12.98242  15.26899  10.31791  1       25
siesta:     13.88949  13.88949  11.01711  2       26
siesta:     12.43440  14.66428   8.69274  2       27
siesta:      2.57003   6.84081   9.41084  1       28
siesta:      4.19519   6.31169  10.01555  2       29
siesta:      1.68186   7.36993  10.90372  2       30
siesta:      5.38572   1.02045   3.25033  1       31
siesta:      4.95108   1.54958   1.56847  2       32
siesta:      3.77945   0.86927   4.10071  2       33
siesta:      5.76367  14.32413   3.81725  1       34
siesta:      5.99043  16.10047   3.49599  2       35
siesta:      5.63139  14.19185   5.61249  2       36
siesta:      5.82036   9.78879  15.51466  1       37
siesta:      5.17785  10.37460  17.10203  2       38
siesta:      4.36527   9.75099  14.41862  2       39
siesta:     12.11315   4.72432  12.98242  1       40
siesta:     12.03756   2.92908  13.26588  2       41
siesta:     13.85170   5.06447  12.60448  2       42
siesta:     14.47531   0.00000   4.08181  1       43
siesta:     12.79345  -0.37795   4.62983  2       44
siesta:     14.22964   1.02045   2.60782  2       45
siesta:      9.22187  10.69585  11.69741  1       46
siesta:      8.18252  10.26122  13.11470  2       47
siesta:      9.54312   9.10848  10.86593  2       48
siesta:      2.92908  11.11159   1.28501  1       49
siesta:      3.83615  12.39661   2.15429  2       50
siesta:      1.19053  11.58403   1.45509  2       51
siesta:      2.70231  15.11782  14.17295  1       52
siesta:      1.75745  13.88949  15.09892  2       53
siesta:      2.55113  16.62960  15.17451  2       54
siesta:     15.28789  14.17295  17.02644  1       55
siesta:     15.81701  13.88949  18.72719  2       56
siesta:     13.85170  15.25010  17.17762  2       57
siesta:     17.49887   5.10226  -0.26456  1       58
siesta:     17.57446   5.29124   1.53068  2       59
siesta:     15.94929   4.19519  -0.54802  2       60
siesta:      6.55735   7.21876   2.79680  1       61
siesta:      5.55580   8.73054   2.85349  2       62
siesta:      5.36682   5.87705   3.11805  2       63
siesta:      0.03779   7.19986   4.72432  1       64
siesta:      0.64251   7.42663   6.40617  2       65
siesta:      1.36060   7.88016   3.68497  2       66
siesta:     17.23431   2.66451  11.28167  1       67
siesta:     17.76343   0.94486  11.01711  2       68
siesta:     17.04534   3.34482   9.59981  2       69
siesta:      7.95575   5.68808  10.16673  1       70
siesta:      9.31635   5.31013  11.30057  2       71
siesta:      8.01244   4.36527   8.93841  2       72
siesta:     16.83747  13.54934   3.55269  1       73
siesta:     15.23120  13.47375   4.38417  2       74
siesta:     17.85792  14.56979   4.62983  2       75
siesta:     17.97130  16.00599   9.92107  1       76
siesta:     18.95396  15.68473  11.39505  2       77
siesta:     16.25165  15.94929  10.50688  2       78
siesta:     14.17295  10.84703  13.00132  1       79
siesta:     14.39972  12.20764  14.17295  2       80
siesta:     12.39661  10.82814  12.68007  2       81
siesta:      9.01400   0.69920   6.78412  1       82
siesta:      8.42818  -0.83148   7.54001  2       83
siesta:      8.08803   0.83148   5.23454  2       84
siesta:      6.02823  14.58869   9.16518  1       85
siesta:      7.14317  13.22809   9.63761  2       86
siesta:      5.78256  15.51466  10.69585  2       87
siesta:      0.77479  18.50043   5.53690  1       88
siesta:      0.56692  17.82012   7.19986  2       89
siesta:     -0.90707  18.65160   4.89439  2       90
siesta:     13.03912   2.70231  18.31145  1       91
siesta:     11.98087   4.15740  18.27366  2       92
siesta:     11.99977   1.34171  17.72564  2       93
siesta:      9.63761  12.92573  17.66895  1       94
siesta:      8.18252  12.26433  16.83747  2       95
siesta:     10.48798  11.45174  18.31145  2       96

siesta: System type = bulk      

initatomlists: Number of atoms, orbitals, and projectors:     96  2912  1536

siesta: ******************** Simulation parameters ****************************
siesta:
siesta: The following are some of the parameters of the simulation.
siesta: A complete list of the parameters used, including default values,
siesta: can be found in file out.fdf
siesta:
redata: Non-Collinear-spin run           =     F
redata: SpinPolarized (Up/Down) run      =     F
redata: Number of spin components        =     1
redata: Long output                      =     F
redata: Number of Atomic Species         =        2
redata: Charge density info will appear in .RHO file
redata: Write Mulliken Pop.              =     NO
redata: Mesh Cutoff                      =   150.0000  Ry
redata: Net charge of the system         =     0.0000 |e|
redata: Min. number of SCF Iter          =        0
redata: Max. number of SCF Iter          =       50
redata: Mix DM or H after convergence    =     F
redata: Recompute H after scf cycle      =     F
redata: Performing Pulay mixing using    =     3 iterations
redata: Mix DM in first SCF step ?       =     F
redata: Write Pulay info on disk?        =     F
redata: Discard 1st Pulay DM after  kick =     F
redata: New DM Mixing Weight             =     0.3000
redata: New DM Occupancy tolerance       = 0.000000000001
redata: No kicks to SCF
redata: DM Mixing Weight for Kicks       =     0.5000
redata: DM Tolerance for SCF             =     0.000100
redata: Require (free) Energy convergence in SCF =     F
redata: DM (free)Energy tolerance for SCF =     0.000010 eV
redata: Require Harris convergence for SCF =     F
redata: DM Harris energy tolerance for SCF =     0.000010 eV
redata: Using Saved Data (generic)   =     F
redata: Use continuation files for DM    =     F
redata: Neglect nonoverlap interactions  =     F
redata: Method of Calculation            =     old SLEPc
redata: Fix the spin of the system       =     F
redata: Dynamics option                  =     Single-point calculation
redata: ***********************************************************************
Total number of electrons:   256.000000
Total ionic charge:   256.000000

* ProcessorY, Blocksize:    8  46


* Orbital distribution balance (max,min):    46    14

 Kpoints in:            1 . Kpoints trimmed:            1

siesta: k-grid: Number of k-points =     1
siesta: k-grid: Cutoff (effective) =     4.928 Ang
siesta: k-grid: Supercell and displacements
siesta: k-grid:    1   0   0      0.000
siesta: k-grid:    0   1   0      0.000
siesta: k-grid:    0   0   1      0.000

                     ====================================
                        Single-point calculation
                     ====================================

outcell: Unit cell vectors (Ang):
        9.856391    0.000000    0.000000
        0.000000    9.856391    0.000000
        0.000000    0.000000    9.856391

outcell: Cell vector modules (Ang)   :    9.856391    9.856391    9.856391
outcell: Cell angles (23,13,12) (deg):     90.0000     90.0000     90.0000
outcell: Cell volume (Ang**3)        :    957.5332
 Folding of H and S is implicitly performed
New_DM. Step:     1
Initializing Density Matrix...
New grid distribution:   1
           1       1:   40    1:    5    1:    5
           2       1:   40    1:    5    6:   10
           3       1:   40    1:    5   11:   15
           4       1:   40    1:    5   16:   20
           5       1:   40    1:    5   21:   25
           6       1:   40    1:    5   26:   30
           7       1:   40    1:    5   31:   35
           8       1:   40    1:    5   36:   40
           9       1:   40    6:   10    1:    5
          10       1:   40    6:   10    6:   10
          11       1:   40    6:   10   11:   15
          12       1:   40    6:   10   16:   20
          13       1:   40    6:   10   21:   25
          14       1:   40    6:   10   26:   30
          15       1:   40    6:   10   31:   35
          16       1:   40    6:   10   36:   40
          17       1:   40   11:   15    1:    5
          18       1:   40   11:   15    6:   10
          19       1:   40   11:   15   11:   15
          20       1:   40   11:   15   16:   20
          21       1:   40   11:   15   21:   25
          22       1:   40   11:   15   26:   30
          23       1:   40   11:   15   31:   35
          24       1:   40   11:   15   36:   40
          25       1:   40   16:   20    1:    5
          26       1:   40   16:   20    6:   10
          27       1:   40   16:   20   11:   15
          28       1:   40   16:   20   16:   20
          29       1:   40   16:   20   21:   25
          30       1:   40   16:   20   26:   30
          31       1:   40   16:   20   31:   35
          32       1:   40   16:   20   36:   40
          33       1:   40   21:   25    1:    5
          34       1:   40   21:   25    6:   10
          35       1:   40   21:   25   11:   15
          36       1:   40   21:   25   16:   20
          37       1:   40   21:   25   21:   25
          38       1:   40   21:   25   26:   30
          39       1:   40   21:   25   31:   35
          40       1:   40   21:   25   36:   40
          41       1:   40   26:   30    1:    5
          42       1:   40   26:   30    6:   10
          43       1:   40   26:   30   11:   15
          44       1:   40   26:   30   16:   20
          45       1:   40   26:   30   21:   25
          46       1:   40   26:   30   26:   30
          47       1:   40   26:   30   31:   35
          48       1:   40   26:   30   36:   40
          49       1:   40   31:   35    1:    5
          50       1:   40   31:   35    6:   10
          51       1:   40   31:   35   11:   15
          52       1:   40   31:   35   16:   20
          53       1:   40   31:   35   21:   25
          54       1:   40   31:   35   26:   30
          55       1:   40   31:   35   31:   35
          56       1:   40   31:   35   36:   40
          57       1:   40   36:   40    1:    5
          58       1:   40   36:   40    6:   10
          59       1:   40   36:   40   11:   15
          60       1:   40   36:   40   16:   20
          61       1:   40   36:   40   21:   25
          62       1:   40   36:   40   26:   30
          63       1:   40   36:   40   31:   35
          64       1:   40   36:   40   36:   40

InitMesh: MESH =    80 x    80 x    80 =      512000
InitMesh: (bp) =    40 x    40 x    40 =       64000
InitMesh: Mesh cutoff (required, used) =   150.000   182.073 Ry
ExtMesh (bp) on 0 =   128 x    93 x    93 =     1107072
New grid distribution:   2
           1      11:   20   11:   21   21:   30
           2      11:   20    1:   10   21:   30
           3      21:   30    1:   10    1:   10
           4      21:   29   31:   40   31:   40
           5       1:   10   11:   21   31:   40
           6      31:   40    1:   10    1:   10
           7      11:   20    1:   10   31:   40
           8      21:   30   22:   30   21:   30
           9       1:   10   11:   21   21:   30
          10       1:   10    1:   10   21:   30
          11      31:   40    1:   10   11:   20
          12      31:   40   22:   30   21:   30
          13      21:   30   11:   21   21:   30
          14      21:   30    1:   10   11:   20
          15       1:   10    1:   10   31:   40
          16      21:   30   22:   30    1:   10
          17      21:   30   11:   21    1:   10
          18      31:   40   22:   30    1:   10
          19      31:   40   11:   21   11:   20
          20      11:   20   12:   21   11:   20
          21      21:   30    1:   10   31:   40
          22      31:   40   31:   40    1:   10
          23      21:   30   11:   21   31:   40
          24      21:   30   32:   40   11:   20
          25      31:   40   11:   21    1:   10
          26      11:   20   22:   31   31:   40
          27       1:   10   12:   21   11:   20
          28       1:   10   32:   40    1:   10
          29      31:   40   11:   21   21:   30
          30      31:   40    1:   10   31:   40
          31      21:   30   22:   31   11:   20
          32      11:   20   32:   40   21:   30
          33      31:   40    1:   10   21:   30
          34       1:   10   22:   31    1:   10
          35      21:   30   11:   21   11:   20
          36       1:   10   32:   40   11:   20
          37       1:   10   22:   31   21:   30
          38      21:   30   31:   40    1:   10
          39      31:   40   11:   21   31:   40
          40      21:   30   22:   30   31:   40
          41      11:   20   11:   21   31:   40
          42      21:   30    1:   10   21:   30
          43       1:   10   22:   31   11:   20
          44      11:   20   32:   40    1:   10
          45       1:   10    1:   11   11:   20
          46      11:   20   22:   31   21:   30
          47       1:   10    1:   10    1:   10
          48      31:   40   22:   30   31:   40
          49      11:   20   11:   21    1:   10
          50       1:   10   22:   31   31:   40
          51      11:   20   22:   31   11:   20
          52      31:   40   32:   40   11:   20
          53      11:   20    1:   11   11:   20
          54      31:   40   31:   40   21:   30
          55      31:   40   22:   31   11:   20
          56      11:   20   32:   40   31:   40
          57       1:   10   11:   21    1:   10
          58      11:   20   22:   31    1:   10
          59      11:   20    1:   10    1:   10
          60      11:   20   32:   40   11:   20
          61      21:   30   31:   40   21:   30
          62       1:   10   32:   40   21:   30
          63      30:   40   31:   40   31:   40
          64       1:   10   32:   40   31:   40
New grid distribution:   3
           1      21:   30   11:   20   31:   40
           2      21:   30   31:   40   31:   40
           3      21:   30   11:   20    1:   10
           4      21:   30   31:   40    1:   10
           5      21:   30    1:   10   21:   30
           6      31:   40   31:   40   31:   40
           7      31:   40   11:   20    1:   10
           8      31:   40   31:   40    1:   10
           9      31:   40   11:   20   31:   40
          10      21:   30   21:   30   31:   40
          11      21:   30    1:   10    1:   10
          12      21:   30   21:   30    1:   10
          13      31:   40    1:   10   21:   30
          14      31:   40   21:   30   31:   40
          15      31:   40    1:   10    1:   10
          16      31:   40   21:   30    1:   10
          17      21:   30    1:   10   31:   40
          18       1:   10   31:   40   21:   30
          19      21:   30   11:   20   11:   20
          20       1:   10   31:   40    1:   10
          21      21:   30   11:   20   21:   30
          22      11:   20   31:   40   21:   30
          23      21:   30    1:   10   11:   20
          24      11:   20   31:   40    1:   10
          25      31:   40    1:   10   31:   40
          26       1:   10   21:   30   21:   30
          27      31:   40   11:   20   11:   20
          28       1:   10   21:   30    1:   10
          29      31:   40   11:   20   21:   30
          30      11:   20   21:   30   21:   30
          31      31:   40    1:   10   11:   20
          32      11:   20   21:   30    1:   10
          33       1:   10   11:   20   21:   30
          34       1:   10   31:   40   31:   40
          35       1:   10   11:   20    1:   10
          36      21:   30   21:   30   11:   20
          37      11:   20   11:   20   21:   30
          38      21:   30   21:   30   21:   30
          39      11:   20   11:   20    1:   10
          40       1:   10   31:   40   11:   20
          41       1:   10    1:   10   21:   30
          42      11:   20   31:   40   31:   40
          43       1:   10    1:   10    1:   10
          44      31:   40   21:   30   11:   20
          45      11:   20    1:   10   21:   30
          46      31:   40   21:   30   21:   30
          47      11:   20    1:   10    1:   10
          48      11:   20   31:   40   11:   20
          49       1:   10   11:   20   31:   40
          50       1:   10   21:   30   31:   40
          51       1:   10   11:   20   11:   20
          52      21:   30   31:   40   11:   20
          53      11:   20   11:   20   31:   40
          54      21:   30   31:   40   21:   30
          55      11:   20   11:   20   11:   20
          56       1:   10   21:   30   11:   20
          57       1:   10    1:   10   31:   40
          58      11:   20   21:   30   31:   40
          59       1:   10    1:   10   11:   20
          60      31:   40   31:   40   11:   20
          61      11:   20    1:   10   31:   40
          62      31:   40   31:   40   21:   30
          63      11:   20    1:   10   11:   20
          64      11:   20   21:   30   11:   20
Setting up quadratic distribution...
ExtMesh (bp) on 0 =    98 x    99 x    98 =      950796
PhiOnMesh: Number of (b)points on node 0 =                 1100
PhiOnMesh: nlist on node 0 =               866383
 QETSC: Update                =1609221156
QETSC: Number of ranks       =          64
QETSC: Number of slices      =          64
QETSC: Number of ranks/slice =           1
QETSC: Number of evals/slice =   2.00
QETSC: Number of req. evals  =         128
QETSC: Number of rows (all)  =        2912
QETSC: Number of rows (max)  =          46
QETSC: Number of rows (min)  =          14
QETSC: Number of nonzeros    =     5568584
QETSC: Nonzero % (all)       =  65.67
QETSC: Nonzero % (max)       =  69.02
QETSC: Nonzero % (min)       =  62.15
QETSC: Global evecs          =      F
QETSC: Bin type given        =           0
QETSC: Bin buffer            =   0.10
QETSC: Diff thresh           =   0.01
QETSC: Infinity type         =           2
QETSC: Inertia type          =           1
 QETSC: Estimated eigenvalues         =
-2.1904761904761902E+00
-2.1876678876678874E+00
-2.1848595848595846E+00
-2.1820512820512818E+00
-2.1792429792429791E+00
-2.1764346764346763E+00
-2.1736263736263735E+00
-2.1708180708180707E+00
-2.1680097680097679E+00
-2.1652014652014651E+00
-2.1623931623931623E+00
-2.1595848595848595E+00
-2.1567765567765567E+00
-2.1539682539682539E+00
-2.1520467836257309E+00
-2.1501253132832079E+00
-2.1482038429406849E+00
-2.1462823725981619E+00
-2.1443609022556389E+00
-2.1424394319131159E+00
-2.1405179615705929E+00
-2.1385964912280699E+00
-2.1366750208855469E+00
-2.1347535505430244E+00
-2.1328320802005014E+00
-2.1309106098579784E+00
-2.1289891395154554E+00
-2.1270676691729324E+00
-2.1251461988304094E+00
-2.1232247284878865E+00
-2.1213032581453635E+00
-2.1193817878028405E+00
-1.2777777777777777E+00
-1.2716931216931215E+00
-1.2656084656084656E+00
-1.2595238095238095E+00
-1.2534391534391534E+00
-1.2473544973544974E+00
-1.2412698412698413E+00
-1.2391223155929039E+00
-1.2369747899159664E+00
-1.2348272642390290E+00
-1.2326797385620916E+00
-1.2305322128851541E+00
-1.2283846872082167E+00
-1.2262371615312793E+00
-1.2240896358543418E+00
-1.2219421101774042E+00
-1.2197945845004667E+00
-1.2176470588235293E+00
-1.2154995331465919E+00
-1.2133520074696544E+00
-1.2112044817927170E+00
-1.2090569561157796E+00
-1.2069094304388421E+00
-1.2047619047619047E+00
-1.2007054673721340E+00
-1.1966490299823633E+00
-1.1925925925925926E+00
-1.1885361552028220E+00
-1.1844797178130511E+00
-1.1804232804232804E+00
-1.1763668430335097E+00
-1.1723104056437390E+00
-1.0952380952380951E+00
-1.0587301587301587E+00
-1.0535147392290249E+00
-1.0482993197278911E+00
-1.0430839002267573E+00
-1.0378684807256235E+00
-1.0326530612244897E+00
-1.0274376417233559E+00
-1.0222222222222221E+00
-1.0185714285714285E+00
-1.0149206349206348E+00
-1.0112698412698413E+00
-1.0076190476190476E+00
-1.0039682539682540E+00
-1.0003174603174603E+00
-9.9666666666666670E-01
-9.9301587301587302E-01
-9.8936507936507945E-01
-9.8571428571428577E-01
-9.8206349206349208E-01
-9.7841269841269840E-01
-9.7476190476190483E-01
-9.7111111111111115E-01
-9.6746031746031746E-01
-9.6380952380952378E-01
-9.6015873015873010E-01
-9.5650793650793653E-01
-9.5285714285714285E-01
-9.4920634920634916E-01
-9.4007936507936507E-01
-9.3095238095238098E-01
-9.2182539682539688E-01
-8.7619047619047619E-01
-8.7390873015873016E-01
-8.7162698412698414E-01
-8.6934523809523812E-01
-8.6706349206349209E-01
-8.6478174603174607E-01
-8.6250000000000004E-01
-8.6021825396825402E-01
-8.5793650793650800E-01
-8.5565476190476197E-01
-8.5337301587301595E-01
-8.5109126984126993E-01
-8.4880952380952390E-01
-8.4652777777777788E-01
-8.4424603174603186E-01
-8.4196428571428583E-01
-8.3968253968253981E-01
-8.3740079365079378E-01
-8.3511904761904776E-01
-8.3283730158730174E-01
-8.3055555555555571E-01
-8.2827380952380958E-01
-8.2599206349206356E-01
-8.2371031746031753E-01
-8.2142857142857151E-01
-8.1914682539682548E-01
-8.1686507936507946E-01
-8.1458333333333344E-01
-8.1230158730158730E-01
-8.1001984126984128E-01
-8.0773809523809526E-01
 0.0000000000000000E+00
 QETSC: Bins             =
              -Infinity
-2.2999999999999998E+00
-2.2634920634920634E+00
-2.2269841269841266E+00
-2.1904761904761902E+00
-2.1539682539682539E+00
-2.1174603174603175E+00
-2.0809523809523807E+00
-2.0444444444444443E+00
-2.0079365079365079E+00
-1.9714285714285713E+00
-1.9349206349206347E+00
-1.8984126984126983E+00
-1.8619047619047617E+00
-1.8253968253968254E+00
-1.7888888888888888E+00
-1.7523809523809524E+00
-1.7158730158730158E+00
-1.6793650793650792E+00
-1.6428571428571428E+00
-1.6063492063492064E+00
-1.5698412698412698E+00
-1.5333333333333332E+00
-1.4968253968253968E+00
-1.4603174603174602E+00
-1.4238095238095236E+00
-1.3873015873015873E+00
-1.3507936507936509E+00
-1.3142857142857143E+00
-1.2777777777777777E+00
-1.2412698412698413E+00
-1.2047619047619047E+00
-1.1682539682539683E+00
-1.1317460317460317E+00
-1.0952380952380951E+00
-1.0587301587301587E+00
-1.0222222222222221E+00
-9.8571428571428577E-01
-9.4920634920634916E-01
-9.1269841269841279E-01
-8.7619047619047619E-01
-8.3968253968253981E-01
-8.0317460317460321E-01
-7.6666666666666661E-01
-7.3015873015873023E-01
-6.9365079365079363E-01
-6.5714285714285725E-01
-6.2063492063492065E-01
-5.8412698412698427E-01
-5.4761904761904767E-01
-5.1111111111111107E-01
-4.7460317460317469E-01
-4.3809523809523809E-01
-4.0158730158730171E-01
-3.6507936507936511E-01
-3.2857142857142874E-01
-2.9206349206349236E-01
-2.5555555555555554E-01
-2.1904761904761916E-01
-1.8253968253968278E-01
-1.4603174603174596E-01
-1.0952380952380958E-01
-7.3015873015873201E-02
-3.6507936507936822E-02
 0.0000000000000000E+00
QETSC: Started iter            1
QETSC: Bin type used         =           0
QETSC: Buffer used           = 0.00000000000E+00
QETSC: EPS interval          = -Infinity,     0.000
QETSC: Inertia type          =           1
 QETSC: Eigenvalues         =
-2.1843076548021614E+00
-2.1783975041508365E+00
-2.1738264624671526E+00
-2.1721071224529860E+00
-2.1692347582294760E+00
-2.1651877128682151E+00
-2.1629752939529032E+00
-2.1624359808562028E+00
-2.1610263367950542E+00
-2.1601360630024313E+00
-2.1581973084095813E+00
-2.1571353009773593E+00
-2.1553714281501501E+00
-2.1538511078197708E+00
-2.1504736447780517E+00
-2.1470198883939271E+00
-2.1467443808627227E+00
-2.1450908481608173E+00
-2.1424264073311590E+00
-2.1419573590199956E+00
-2.1387564317801138E+00
-2.1380673764969496E+00
-2.1366860044713434E+00
-2.1364504924472247E+00
-2.1343574820414006E+00
-2.1327466252330964E+00
-2.1309939017273480E+00
-2.1293670752189215E+00
-2.1274639937968942E+00
-2.1270364853407959E+00
-2.1262398580900270E+00
-2.1240387371898382E+00
-1.2570253557683231E+00
-1.2557529000591712E+00
-1.2537014317470079E+00
-1.2495780985168308E+00
-1.2484004370934652E+00
-1.2441286155555147E+00
-1.2383015883880744E+00
-1.2377379945121565E+00
-1.2361694960173575E+00
-1.2356115443379274E+00
-1.2331165657200454E+00
-1.2309437717209279E+00
-1.2276871124832858E+00
-1.2254419185407059E+00
-1.2234799797008353E+00
-1.2221372733422307E+00
-1.2169969724523861E+00
-1.2150915358165162E+00
-1.2129468298025414E+00
-1.2101429801026362E+00
-1.2089203745932395E+00
-1.2056936438868966E+00
-1.2054530919990951E+00
-1.2021423647241538E+00
-1.2003565832001826E+00
-1.1999270431321423E+00
-1.1989765947137507E+00
-1.1962461969958662E+00
-1.1941953606362479E+00
-1.1904993183541857E+00
-1.1836490330504215E+00
-1.1807869775114543E+00
-1.0630256089500076E+00
-1.0533201253648821E+00
-1.0455055453347464E+00
-1.0400577905034964E+00
-1.0374106305038562E+00
-1.0285122925773444E+00
-1.0275894406692092E+00
-1.0225177647113810E+00
-1.0205002277765018E+00
-1.0167752936898393E+00
-1.0162372507015549E+00
-1.0055960692574184E+00
-1.0046947339751129E+00
-1.0018594866512991E+00
-9.9566908472095084E-01
-9.9314589950290078E-01
-9.8837760673345032E-01
-9.8573771012281408E-01
-9.8293075240284922E-01
-9.7562210733096255E-01
-9.7370105155837505E-01
-9.6996263896530299E-01
-9.6657638777694810E-01
-9.6241478636030153E-01
-9.6065552795638731E-01
-9.5776734060576174E-01
-9.5491132299037718E-01
-9.5160801956685059E-01
-9.4813047777950377E-01
-9.3924642608517028E-01
-9.3517844096675673E-01
-9.2821465995783115E-01
-8.6491694020078624E-01
-8.6310863585706965E-01
-8.6007052840862830E-01
-8.5937028120269521E-01
-8.5685849111210377E-01
-8.5596908377502512E-01
-8.5486310839273139E-01
-8.5160166148751015E-01
-8.4919703759012666E-01
-8.4745215474055613E-01
-8.4704043611231450E-01
-8.4652950982430264E-01
-8.4593322399312665E-01
-8.4393299597762073E-01
-8.4348272753142706E-01
-8.4113614958321092E-01
-8.3900444245251515E-01
-8.3803613339453165E-01
-8.3624327134436471E-01
-8.3520124602167256E-01
-8.3376030877969853E-01
-8.3276620129245482E-01
-8.3126900316606711E-01
-8.3049324823748161E-01
-8.2947019225514818E-01
-8.2852345982892417E-01
-8.2650987379621454E-01
-8.2606998676812227E-01
-8.2363370911617073E-01
-8.2222838403296117E-01
-8.1953160325585550E-01
-8.1872301551209414E-01
QETSC: Iter time (min)       =  19.01
QETSC: Iter time (max)       =  28.55
QETSC: Iter time (avg)       =  24.96
QETSC: Num. of conv. evals   =         146
QETSC: Eigenvalue (1)        =-2.18430765480E+00
QETSC: Eigenvalue (nocc)     =-8.18723015512E-01
QETSC: Max differrence       = 2.18430765480E+00
QETSC: Safe iteration        =      F
QETSC: Finished iter            1
 *****************************************************************

siesta: Program's energy decomposition (eV):
siesta: Ebs     =     -4529.853161
siesta: Eions   =     26107.343333
siesta: Ena     =      5853.795051
siesta: Ekin    =     10461.560592
siesta: Enl     =     -1536.356393
siesta: DEna    =        -0.000008
siesta: DUscf   =         0.000000
siesta: DUext   =         0.000000
siesta: Exc     =     -3633.754362
siesta: eta*DQ  =         0.000000
siesta: Emadel  =         0.000000
siesta: Emeta   =         0.000000
siesta: Emolmec =         0.000000
siesta: Ekinion =         0.000000
siesta: Eharris =    -15105.127527
siesta: Etot    =    -14962.098453
siesta: FreeEng =    -14962.098453
timer: Routine,Calls,Time,% =    IterSCF     1      77.141  52.83
             Section          Calls    Walltime % sect.
 IterSCF                          1      77.434  100.00
  setup_H                         1      43.754   56.51
  compute_dm                      1      33.566   43.35
  MPI_ALLREDUCE                   3       0.089    0.11
  MIXER                           1       0.017    0.02
 QETSC: Estimated eigenvalues         =
-1.7888888888888888E+00
-1.7523809523809524E+00
-1.7341269841269842E+00
-1.7158730158730158E+00
-1.7106575963718820E+00
-1.7054421768707482E+00
-1.7002267573696144E+00
-1.6950113378684806E+00
-1.6897959183673468E+00
-1.6845804988662130E+00
-1.6793650793650792E+00
-1.6748015873015871E+00
-1.6702380952380951E+00
-1.6656746031746030E+00
-1.6611111111111110E+00
-1.6565476190476189E+00
-1.6519841269841269E+00
-1.6474206349206348E+00
-1.6428571428571428E+00
-1.6388007054673721E+00
-1.6347442680776014E+00
-1.6306878306878307E+00
-1.6266313932980601E+00
-1.6225749559082892E+00
-1.6185185185185185E+00
-1.6144620811287478E+00
-1.6104056437389771E+00
-1.6063492063492064E+00
-1.5972222222222223E+00
-1.5880952380952382E+00
-1.5789682539682539E+00
-1.5333333333333332E+00
-9.4920634920634916E-01
-9.3703703703703700E-01
-9.2486772486772495E-01
-9.1269841269841279E-01
-9.0539682539682542E-01
-8.9809523809523817E-01
-8.9079365079365080E-01
-8.8349206349206355E-01
-8.7619047619047619E-01
-8.7213403880070550E-01
-8.6807760141093482E-01
-8.6402116402116402E-01
-8.5996472663139334E-01
-8.5590828924162266E-01
-8.5185185185185197E-01
-8.4779541446208118E-01
-8.4373897707231049E-01
-8.3968253968253981E-01
-8.3511904761904776E-01
-8.3055555555555571E-01
-8.2599206349206356E-01
-8.2142857142857151E-01
-8.1686507936507946E-01
-8.1230158730158730E-01
-8.0773809523809526E-01
-8.0317460317460321E-01
-7.9708994708994707E-01
-7.9100529100529104E-01
-7.8492063492063491E-01
-7.7883597883597877E-01
-7.7275132275132274E-01
-7.6666666666666661E-01
-6.5714285714285725E-01
-6.3888888888888895E-01
-6.2063492063492065E-01
-6.0846560846560849E-01
-5.9629629629629644E-01
-5.8412698412698427E-01
-5.7804232804232814E-01
-5.7195767195767211E-01
-5.6587301587301597E-01
-5.5978835978835984E-01
-5.5370370370370381E-01
-5.4761904761904767E-01
-5.3849206349206358E-01
-5.2936507936507937E-01
-5.2023809523809517E-01
-5.1111111111111107E-01
-5.0380952380952382E-01
-4.9650793650793651E-01
-4.8920634920634926E-01
-4.8190476190476195E-01
-4.7460317460317469E-01
-4.6938775510204089E-01
-4.6417233560090709E-01
-4.5895691609977329E-01
-4.5374149659863949E-01
-4.4852607709750569E-01
-4.4331065759637189E-01
-4.3809523809523809E-01
-4.2896825396825400E-01
-4.1984126984126990E-01
-4.1071428571428581E-01
-4.0158730158730171E-01
-3.9702380952380967E-01
-3.9246031746031756E-01
-3.8789682539682546E-01
-3.8333333333333341E-01
-3.7876984126984137E-01
-3.7420634920634926E-01
-3.6964285714285716E-01
-3.6507936507936511E-01
-3.6102292768959443E-01
-3.5696649029982369E-01
-3.5291005291005301E-01
-3.4885361552028227E-01
-3.4479717813051158E-01
-3.4074074074074084E-01
-3.3668430335097016E-01
-3.3262786596119942E-01
-3.2857142857142874E-01
-3.2492063492063511E-01
-3.2126984126984148E-01
-3.1761904761904780E-01
-3.1396825396825417E-01
-3.1031746031746055E-01
-3.0666666666666692E-01
-3.0301587301587329E-01
-2.9936507936507961E-01
-2.9571428571428598E-01
-2.9206349206349236E-01
-2.8476190476190499E-01
-2.7746031746031763E-01
-2.7015873015873026E-01
-2.6285714285714290E-01
 0.0000000000000000E+00
 QETSC: Bins             =
              -Infinity
-2.2999999999999998E+00
-2.2634920634920634E+00
-2.2269841269841266E+00
-2.1904761904761902E+00
-2.1539682539682539E+00
-2.1174603174603175E+00
-2.0809523809523807E+00
-2.0444444444444443E+00
-2.0079365079365079E+00
-1.9714285714285713E+00
-1.9349206349206347E+00
-1.8984126984126983E+00
-1.8619047619047617E+00
-1.8253968253968254E+00
-1.7888888888888888E+00
-1.7523809523809524E+00
-1.7158730158730158E+00
-1.6793650793650792E+00
-1.6428571428571428E+00
-1.6063492063492064E+00
-1.5698412698412698E+00
-1.5333333333333332E+00
-1.4968253968253968E+00
-1.4603174603174602E+00
-1.4238095238095236E+00
-1.3873015873015873E+00
-1.3507936507936509E+00
-1.3142857142857143E+00
-1.2777777777777777E+00
-1.2412698412698413E+00
-1.2047619047619047E+00
-1.1682539682539683E+00
-1.1317460317460317E+00
-1.0952380952380951E+00
-1.0587301587301587E+00
-1.0222222222222221E+00
-9.8571428571428577E-01
-9.4920634920634916E-01
-9.1269841269841279E-01
-8.7619047619047619E-01
-8.3968253968253981E-01
-8.0317460317460321E-01
-7.6666666666666661E-01
-7.3015873015873023E-01
-6.9365079365079363E-01
-6.5714285714285725E-01
-6.2063492063492065E-01
-5.8412698412698427E-01
-5.4761904761904767E-01
-5.1111111111111107E-01
-4.7460317460317469E-01
-4.3809523809523809E-01
-4.0158730158730171E-01
-3.6507936507936511E-01
-3.2857142857142874E-01
-2.9206349206349236E-01
-2.5555555555555554E-01
-2.1904761904761916E-01
-1.8253968253968278E-01
-1.4603174603174596E-01
-1.0952380952380958E-01
-7.3015873015873201E-02
-3.6507936507936822E-02
 0.0000000000000000E+00
QETSC: Started iter            2
QETSC: Bin type used         =           0
QETSC: Buffer used           = 0.00000000000E+00
QETSC: EPS interval          = -Infinity,     0.000
QETSC: Inertia type          =           1
 QETSC: Eigenvalues         =
-1.7571024231394929E+00
-1.7242732810536625E+00
-1.7171894727066808E+00
-1.7040032222084074E+00
-1.7030053155061020E+00
-1.7012517385944212E+00
-1.6960171886541351E+00
-1.6918877749252743E+00
-1.6903135847978843E+00
-1.6813780928847466E+00
-1.6777023081107307E+00
-1.6715667043912135E+00
-1.6709351273251589E+00
-1.6669650762583610E+00
-1.6590410690163195E+00
-1.6567838789403488E+00
-1.6519401448704205E+00
-1.6450943537605307E+00
-1.6420610468784769E+00
-1.6383447509713569E+00
-1.6360454588252442E+00
-1.6330004087716259E+00
-1.6283834980282308E+00
-1.6205520905560662E+00
-1.6183510826552741E+00
-1.6101609087626303E+00
-1.6096665061099096E+00
-1.6053977171797866E+00
-1.5972883247793010E+00
-1.5883938792925649E+00
-1.5876599435020604E+00
-1.5289971970119298E+00
-9.2427436300863530E-01
-9.2065641888436756E-01
-9.1338780186533419E-01
-8.9947395751952952E-01
-8.9563638538908596E-01
-8.9081883289854413E-01
-8.8375448731321093E-01
-8.8024484367268363E-01
-8.7487648538929030E-01
-8.7123256131818749E-01
-8.6194396218801439E-01
-8.5989358467751043E-01
-8.5662489396122954E-01
-8.5312420079871520E-01
-8.4888053902124194E-01
-8.4596458178575418E-01
-8.4174004545153724E-01
-8.3630931928998908E-01
-8.3360107384589832E-01
-8.2650234544595402E-01
-8.2129596097959312E-01
-8.1884552403381350E-01
-8.1555623003519118E-01
-8.0633969710294118E-01
-8.0455080044749117E-01
-8.0073832073452400E-01
-7.9554646342075386E-01
-7.9014304577115768E-01
-7.7841937061820055E-01
-7.7180575648336902E-01
-7.6790851133097759E-01
-7.3429309935494180E-01
-6.4050844114339556E-01
-6.2089325016449248E-01
-6.0304711884813644E-01
-5.9290596244733518E-01
-5.8795828680368134E-01
-5.7777602110591864E-01
-5.7376178018263668E-01
-5.7061163392010406E-01
-5.6490869272348621E-01
-5.6327837502036349E-01
-5.5880515657752661E-01
-5.3153361674114796E-01
-5.2829843281659794E-01
-5.2446631451744719E-01
-5.2087407278237907E-01
-5.0912235293104191E-01
-5.0185063548560238E-01
-4.9622422808330252E-01
-4.9310371118021240E-01
-4.8402542645282409E-01
-4.7224442834779601E-01
-4.6922662283642541E-01
-4.6531012145517447E-01
-4.6138108898222407E-01
-4.5158455337675824E-01
-4.4566567486603298E-01
-4.4008611197728453E-01
-4.3437910909114447E-01
-4.2572502515494209E-01
-4.1526847419616891E-01
-4.0785009559194640E-01
-3.9916354128187465E-01
-3.9539584152148494E-01
-3.9207054765163440E-01
-3.8662626358332308E-01
-3.7954287415352594E-01
-3.7506241711150762E-01
-3.7203784003941004E-01
-3.7010291874181050E-01
-3.6455783774814920E-01
-3.5867884511349590E-01
-3.5206225031443655E-01
-3.5036495069667350E-01
-3.4220029111617517E-01
-3.4166692690863287E-01
-3.3630101977911081E-01
-3.3581096430189405E-01
-3.3290912541598788E-01
-3.2683840307847722E-01
-3.2364194848676114E-01
-3.1819023850694284E-01
-3.1355831446148907E-01
-3.0819721147367202E-01
-3.0335075947568407E-01
-3.0034661462381634E-01
-2.9809253102060174E-01
-2.9599449779351117E-01
-2.9325311969768664E-01
-2.8800470121901789E-01
-2.8227033178354599E-01
-2.7520360833768942E-01
-2.6551590989731905E-01
-2.5901217394276316E-01
-2.2013751630902476E-01
QETSC: Iter time (min)       =  12.19
QETSC: Iter time (max)       =  19.19
QETSC: Iter time (avg)       =  16.79
QETSC: Num. of conv. evals   =         132
QETSC: Eigenvalue (1)        =-1.75710242314E+00
QETSC: Eigenvalue (nocc)     =-2.20137516309E-01
QETSC: Max differrence       = 5.98585499203E-01
QETSC: Safe iteration        =      F
QETSC: Finished iter            2
 *****************************************************************
 QETSC: Estimated eigenvalues         =
-2.0444444444444443E+00
-2.0322751322751320E+00
-2.0201058201058202E+00
-2.0079365079365079E+00
-2.0055026455026455E+00
-2.0030687830687830E+00
-2.0006349206349205E+00
-1.9982010582010581E+00
-1.9957671957671956E+00
-1.9933333333333332E+00
-1.9908994708994707E+00
-1.9884656084656085E+00
-1.9860317460317460E+00
-1.9835978835978836E+00
-1.9811640211640211E+00
-1.9787301587301587E+00
-1.9762962962962962E+00
-1.9738624338624338E+00
-1.9714285714285713E+00
-1.9686202686202685E+00
-1.9658119658119657E+00
-1.9630036630036629E+00
-1.9601953601953601E+00
-1.9573870573870573E+00
-1.9545787545787545E+00
-1.9517704517704515E+00
-1.9489621489621487E+00
-1.9461538461538459E+00
-1.9433455433455431E+00
-1.9405372405372403E+00
-1.9377289377289375E+00
-1.9349206349206347E+00
-1.1317460317460317E+00
-1.1287037037037038E+00
-1.1256613756613756E+00
-1.1226190476190476E+00
-1.1195767195767194E+00
-1.1165343915343915E+00
-1.1134920634920635E+00
-1.1104497354497354E+00
-1.1074074074074074E+00
-1.1043650793650792E+00
-1.1013227513227513E+00
-1.0982804232804231E+00
-1.0952380952380951E+00
-1.0924297924297923E+00
-1.0896214896214895E+00
-1.0868131868131867E+00
-1.0840048840048839E+00
-1.0811965811965811E+00
-1.0783882783882783E+00
-1.0755799755799755E+00
-1.0727716727716727E+00
-1.0699633699633699E+00
-1.0671550671550671E+00
-1.0643467643467643E+00
-1.0615384615384615E+00
-1.0587301587301587E+00
-1.0535147392290249E+00
-1.0482993197278911E+00
-1.0430839002267573E+00
-1.0378684807256235E+00
-1.0326530612244897E+00
-1.0274376417233559E+00
-9.1269841269841279E-01
-9.0357142857142869E-01
-8.9444444444444449E-01
-8.8531746031746028E-01
-8.7619047619047619E-01
-8.7097505668934239E-01
-8.6575963718820870E-01
-8.6054421768707490E-01
-8.5532879818594110E-01
-8.5011337868480730E-01
-8.4489795918367361E-01
-8.3968253968253981E-01
-8.3511904761904776E-01
-8.3055555555555571E-01
-8.2599206349206356E-01
-8.2142857142857151E-01
-8.1686507936507946E-01
-8.1230158730158730E-01
-8.0773809523809526E-01
-8.0317460317460321E-01
-7.9911816578483252E-01
-7.9506172839506173E-01
-7.9100529100529104E-01
-7.8694885361552025E-01
-7.8289241622574957E-01
-7.7883597883597877E-01
-7.7477954144620809E-01
-7.7072310405643729E-01
-7.6666666666666661E-01
-7.5753968253968251E-01
-7.4841269841269842E-01
-7.3928571428571432E-01
-7.3015873015873023E-01
-6.9365079365079363E-01
-6.9136904761904761E-01
-6.8908730158730158E-01
-6.8680555555555556E-01
-6.8452380952380953E-01
-6.8224206349206351E-01
-6.7996031746031749E-01
-6.7767857142857146E-01
-6.7539682539682544E-01
-6.7311507936507942E-01
-6.7083333333333339E-01
-6.6855158730158737E-01
-6.6626984126984135E-01
-6.6398809523809532E-01
-6.6170634920634930E-01
-6.5942460317460327E-01
-6.5714285714285725E-01
-6.5453514739229035E-01
-6.5192743764172345E-01
-6.4931972789115655E-01
-6.4671201814058965E-01
-6.4410430839002275E-01
-6.4149659863945585E-01
-6.3888888888888895E-01
-6.3628117913832205E-01
-6.3367346938775515E-01
-6.3106575963718825E-01
-6.2845804988662135E-01
-6.2585034013605445E-01
-6.2324263038548755E-01
 0.0000000000000000E+00
 QETSC: Bins             =
              -Infinity
-2.2999999999999998E+00
-2.2634920634920634E+00
-2.2269841269841266E+00
-2.1904761904761902E+00
-2.1539682539682539E+00
-2.1174603174603175E+00
-2.0809523809523807E+00
-2.0444444444444443E+00
-2.0079365079365079E+00
-1.9714285714285713E+00
-1.9349206349206347E+00
-1.8984126984126983E+00
-1.8619047619047617E+00
-1.8253968253968254E+00
-1.7888888888888888E+00
-1.7523809523809524E+00
-1.7158730158730158E+00
-1.6793650793650792E+00
-1.6428571428571428E+00
-1.6063492063492064E+00
-1.5698412698412698E+00
-1.5333333333333332E+00
-1.4968253968253968E+00
-1.4603174603174602E+00
-1.4238095238095236E+00
-1.3873015873015873E+00
-1.3507936507936509E+00
-1.3142857142857143E+00
-1.2777777777777777E+00
-1.2412698412698413E+00
-1.2047619047619047E+00
-1.1682539682539683E+00
-1.1317460317460317E+00
-1.0952380952380951E+00
-1.0587301587301587E+00
-1.0222222222222221E+00
-9.8571428571428577E-01
-9.4920634920634916E-01
-9.1269841269841279E-01
-8.7619047619047619E-01
-8.3968253968253981E-01
-8.0317460317460321E-01
-7.6666666666666661E-01
-7.3015873015873023E-01
-6.9365079365079363E-01
-6.5714285714285725E-01
-6.2063492063492065E-01
-5.8412698412698427E-01
-5.4761904761904767E-01
-5.1111111111111107E-01
-4.7460317460317469E-01
-4.3809523809523809E-01
-4.0158730158730171E-01
-3.6507936507936511E-01
-3.2857142857142874E-01
-2.9206349206349236E-01
-2.5555555555555554E-01
-2.1904761904761916E-01
-1.8253968253968278E-01
-1.4603174603174596E-01
-1.0952380952380958E-01
-7.3015873015873201E-02
-3.6507936507936822E-02
 0.0000000000000000E+00
QETSC: Started iter            3
QETSC: Bin type used         =           0
QETSC: Buffer used           = 0.00000000000E+00
QETSC: EPS interval          = -Infinity,     0.000
QETSC: Inertia type          =           1
 QETSC: Eigenvalues         =
-2.0238880668735622E+00
-2.0161953454497685E+00
-2.0117887168766044E+00
-2.0074072583894398E+00
-2.0060142093337787E+00
-2.0037898620792558E+00
-2.0009121094183824E+00
-1.9985660126673939E+00
-1.9962245139468868E+00
-1.9954688499707878E+00
-1.9929892212013842E+00
-1.9896289138120382E+00
-1.9875172992408643E+00
-1.9853056509536935E+00
-1.9786913239492494E+00
-1.9773668288988893E+00
-1.9741969370562393E+00
-1.9729814468082909E+00
-1.9708187387792180E+00
-1.9701240227868402E+00
-1.9681564594568943E+00
-1.9646306526587307E+00
-1.9624471958554985E+00
-1.9619715058307277E+00
-1.9590859563722554E+00
-1.9580198247826783E+00
-1.9553121807877871E+00
-1.9523077577533923E+00
-1.9512407464561228E+00
-1.9435167173265033E+00
-1.9418674846304897E+00
-1.9293820231457375E+00
-1.1278081752373719E+00
-1.1253750596197403E+00
-1.1248612014366970E+00
-1.1161167545614197E+00
-1.1145933141791264E+00
-1.1119506406825999E+00
-1.1098948614982060E+00
-1.1082477381056981E+00
-1.1051601535535072E+00
-1.1024052774147473E+00
-1.0996737272978088E+00
-1.0960600337573279E+00
-1.0924478704370086E+00
-1.0908124499961924E+00
-1.0889777610011326E+00
-1.0867981644824307E+00
-1.0830572913307404E+00
-1.0766177539012634E+00
-1.0759604982546738E+00
-1.0729327166610012E+00
-1.0692696985418162E+00
-1.0667966713857218E+00
-1.0650879683688819E+00
-1.0618784726855297E+00
-1.0601361435329171E+00
-1.0580586998918231E+00
-1.0554285869841342E+00
-1.0455370689555865E+00
-1.0440348945543789E+00
-1.0419344855012289E+00
-1.0381595013863318E+00
-1.0317702573276228E+00
-9.0902612233406788E-01
-8.9519533964510944E-01
-8.8909103844486503E-01
-8.7972371290716800E-01
-8.7286159304221500E-01
-8.6716251816671663E-01
-8.6543269816155488E-01
-8.6045096614823258E-01
-8.5765458796920591E-01
-8.5513749852769660E-01
-8.5452622548212476E-01
-8.3669010639304309E-01
-8.3486149921725972E-01
-8.3094109489183887E-01
-8.2755697848345122E-01
-8.1539617146933996E-01
-8.1440668399615246E-01
-8.1120979797784987E-01
-8.0607490886136246E-01
-8.0151632291985109E-01
-7.9907634453051768E-01
-7.9258485116110000E-01
-7.8851939975555663E-01
-7.8636669853186614E-01
-7.8193078860018395E-01
-7.7722773202015494E-01
-7.7444730884693469E-01
-7.6672830207426013E-01
-7.6408139001873909E-01
-7.5262090316848607E-01
-7.4871833305639957E-01
-7.3729994482213446E-01
-7.0253068566267529E-01
-6.9361765097487560E-01
-6.9046483763202915E-01
-6.8627547004168865E-01
-6.8402340777625192E-01
-6.8116324489889368E-01
-6.7915498367828708E-01
-6.7404392472481411E-01
-6.7311129925135393E-01
-6.7106837864314350E-01
-6.6935836164365969E-01
-6.6826504967360523E-01
-6.6648147790480128E-01
-6.6570013969032305E-01
-6.6182565996025444E-01
-6.6128900696779802E-01
-6.6025960650503746E-01
-6.5570029812578112E-01
-6.5268022060237896E-01
-6.4973705572860441E-01
-6.4827012059401956E-01
-6.4613073315044756E-01
-6.4424487996872315E-01
-6.4270406678459602E-01
-6.4133628339308724E-01
-6.4000781567733800E-01
-6.3808859157938258E-01
-6.3426108863011976E-01
-6.3177382548039440E-01
-6.2806291052231400E-01
-6.2450566207269032E-01
-6.0988991678048088E-01
QETSC: Iter time (min)       =  13.24
QETSC: Iter time (max)       =  20.69
QETSC: Iter time (avg)       =  18.11
QETSC: Num. of conv. evals   =         138
QETSC: Eigenvalue (1)        =-2.02388806687E+00
QETSC: Eigenvalue (nocc)     =-6.09889916780E-01
QETSC: Max differrence       = 4.00384826134E-01
QETSC: Safe iteration        =      F
QETSC: Finished iter            3
 *****************************************************************
 QETSC: Estimated eigenvalues         =
-2.0079365079365079E+00
-2.0018518518518520E+00
-1.9957671957671956E+00
-1.9896825396825397E+00
-1.9835978835978836E+00
-1.9775132275132274E+00
-1.9714285714285713E+00
-1.9686202686202685E+00
-1.9658119658119657E+00
-1.9630036630036629E+00
-1.9601953601953601E+00
-1.9573870573870573E+00
-1.9545787545787545E+00
-1.9517704517704515E+00
-1.9489621489621487E+00
-1.9461538461538459E+00
-1.9433455433455431E+00
-1.9405372405372403E+00
-1.9377289377289375E+00
-1.9349206349206347E+00
-1.9318783068783068E+00
-1.9288359788359786E+00
-1.9257936507936506E+00
-1.9227513227513227E+00
-1.9197089947089945E+00
-1.9166666666666665E+00
-1.9136243386243386E+00
-1.9105820105820104E+00
-1.9075396825396824E+00
-1.9044973544973545E+00
-1.9014550264550263E+00
-1.8984126984126983E+00
-1.1317460317460317E+00
-1.1195767195767194E+00
-1.1074074074074074E+00
-1.0952380952380951E+00
-1.0921957671957672E+00
-1.0891534391534390E+00
-1.0861111111111110E+00
-1.0830687830687831E+00
-1.0800264550264549E+00
-1.0769841269841269E+00
-1.0739417989417990E+00
-1.0708994708994708E+00
-1.0678571428571428E+00
-1.0648148148148149E+00
-1.0617724867724867E+00
-1.0587301587301587E+00
-1.0556878306878308E+00
-1.0526455026455026E+00
-1.0496031746031746E+00
-1.0465608465608465E+00
-1.0435185185185185E+00
-1.0404761904761903E+00
-1.0374338624338624E+00
-1.0343915343915344E+00
-1.0313492063492062E+00
-1.0283068783068783E+00
-1.0252645502645501E+00
-1.0222222222222221E+00
-1.0149206349206348E+00
-1.0076190476190476E+00
-1.0003174603174603E+00
-9.9301587301587302E-01
-9.1269841269841279E-01
-8.7619047619047619E-01
-8.6706349206349209E-01
-8.5793650793650800E-01
-8.4880952380952390E-01
-8.3968253968253981E-01
-8.3446712018140601E-01
-8.2925170068027221E-01
-8.2403628117913841E-01
-8.1882086167800461E-01
-8.1360544217687081E-01
-8.0839002267573701E-01
-8.0317460317460321E-01
-7.9795918367346941E-01
-7.9274376417233561E-01
-7.8752834467120181E-01
-7.8231292517006801E-01
-7.7709750566893421E-01
-7.7188208616780041E-01
-7.6666666666666661E-01
-7.6210317460317456E-01
-7.5753968253968251E-01
-7.5297619047619047E-01
-7.4841269841269842E-01
-7.4384920634920637E-01
-7.3928571428571432E-01
-7.3472222222222228E-01
-7.3015873015873023E-01
-7.2285714285714286E-01
-7.1555555555555561E-01
-7.0825396825396825E-01
-7.0095238095238099E-01
-6.9365079365079363E-01
-6.8148148148148147E-01
-6.6931216931216941E-01
-6.5714285714285725E-01
-6.5453514739229035E-01
-6.5192743764172345E-01
-6.4931972789115655E-01
-6.4671201814058965E-01
-6.4410430839002275E-01
-6.4149659863945585E-01
-6.3888888888888895E-01
-6.3628117913832205E-01
-6.3367346938775515E-01
-6.3106575963718825E-01
-6.2845804988662135E-01
-6.2585034013605445E-01
-6.2324263038548755E-01
-6.2063492063492065E-01
-6.1759259259259258E-01
-6.1455026455026462E-01
-6.1150793650793656E-01
-6.0846560846560849E-01
-6.0542328042328053E-01
-6.0238095238095246E-01
-5.9933862433862439E-01
-5.9629629629629644E-01
-5.9325396825396837E-01
-5.9021164021164030E-01
-5.8716931216931234E-01
-5.8412698412698427E-01
-5.7195767195767211E-01
 0.0000000000000000E+00
 QETSC: Bins             =
              -Infinity
-2.2999999999999998E+00
-2.2634920634920634E+00
-2.2269841269841266E+00
-2.1904761904761902E+00
-2.1539682539682539E+00
-2.1174603174603175E+00
-2.0809523809523807E+00
-2.0444444444444443E+00
-2.0079365079365079E+00
-1.9714285714285713E+00
-1.9349206349206347E+00
-1.8984126984126983E+00
-1.8619047619047617E+00
-1.8253968253968254E+00
-1.7888888888888888E+00
-1.7523809523809524E+00
-1.7158730158730158E+00
-1.6793650793650792E+00
-1.6428571428571428E+00
-1.6063492063492064E+00
-1.5698412698412698E+00
-1.5333333333333332E+00
-1.4968253968253968E+00
-1.4603174603174602E+00
-1.4238095238095236E+00
-1.3873015873015873E+00
-1.3507936507936509E+00
-1.3142857142857143E+00
-1.2777777777777777E+00
-1.2412698412698413E+00
-1.2047619047619047E+00
-1.1682539682539683E+00
-1.1317460317460317E+00
-1.0952380952380951E+00
-1.0587301587301587E+00
-1.0222222222222221E+00
-9.8571428571428577E-01
-9.4920634920634916E-01
-9.1269841269841279E-01
-8.7619047619047619E-01
-8.3968253968253981E-01
-8.0317460317460321E-01
-7.6666666666666661E-01
-7.3015873015873023E-01
-6.9365079365079363E-01
-6.5714285714285725E-01
-6.2063492063492065E-01
-5.8412698412698427E-01
-5.4761904761904767E-01
-5.1111111111111107E-01
-4.7460317460317469E-01
-4.3809523809523809E-01
-4.0158730158730171E-01
-3.6507936507936511E-01
-3.2857142857142874E-01
-2.9206349206349236E-01
-2.5555555555555554E-01
-2.1904761904761916E-01
-1.8253968253968278E-01
-1.4603174603174596E-01
-1.0952380952380958E-01
-7.3015873015873201E-02
-3.6507936507936822E-02
 0.0000000000000000E+00
QETSC: Started iter            4
QETSC: Bin type used         =           0
QETSC: Buffer used           = 0.00000000000E+00
QETSC: EPS interval          = -Infinity,     0.000
QETSC: Inertia type          =           1
 QETSC: Eigenvalues         =
-1.9987243971665611E+00
-1.9885256212993201E+00
-1.9827139795981334E+00
-1.9769874591983534E+00
-1.9754344778180055E+00
-1.9722913257728427E+00
-1.9707784368143115E+00
-1.9682221968219868E+00
-1.9666436350016845E+00
-1.9635526528296292E+00
-1.9588992279702806E+00
-1.9570764129718967E+00
-1.9547167144024786E+00
-1.9519699075469223E+00
-1.9460889197818456E+00
-1.9444127458156526E+00
-1.9409511010585974E+00
-1.9397537202044235E+00
-1.9371382250287035E+00
-1.9338265123747804E+00
-1.9326148270661900E+00
-1.9301035150616808E+00
-1.9272875375039316E+00
-1.9255550074467100E+00
-1.9240621166664806E+00
-1.9219153788583787E+00
-1.9188039139160009E+00
-1.9149828571433849E+00
-1.9113520381985127E+00
-1.9014463175935112E+00
-1.9000130431817530E+00
-1.8782514500534897E+00
-1.1053275580300916E+00
-1.1033689157050333E+00
-1.0997121290779537E+00
-1.0951371162433998E+00
-1.0910483692500952E+00
-1.0868149687964159E+00
-1.0856828395046074E+00
-1.0820833494726143E+00
-1.0814885224530442E+00
-1.0787670186439993E+00
-1.0708746661183728E+00
-1.0687510915571721E+00
-1.0668167694596820E+00
-1.0639211112129723E+00
-1.0612875085406543E+00
-1.0581039018723997E+00
-1.0570702728216921E+00
-1.0531556487497724E+00
-1.0475328609703669E+00
-1.0446222300835333E+00
-1.0420576843072329E+00
-1.0397747377073665E+00
-1.0380326959098123E+00
-1.0323716805809862E+00
-1.0316045384822272E+00
-1.0288277671678656E+00
-1.0229852198516960E+00
-1.0175238738471517E+00
-1.0115595272659976E+00
-1.0082387075853574E+00
-1.0043443839026385E+00
-9.9345495380873905E-01
-8.8017704566068311E-01
-8.6543672052508525E-01
-8.5696543428626804E-01
-8.4747379221528618E-01
-8.4124905190310195E-01
-8.3714198413285323E-01
-8.3329730157848525E-01
-8.2898929922091158E-01
-8.2691669687845293E-01
-8.2520396318171085E-01
-8.2373435760356950E-01
-8.0371203316904538E-01
-8.0144424233803768E-01
-7.9684867547615779E-01
-7.9371064947838132E-01
-7.8193966377492419E-01
-7.7841389377279246E-01
-7.7469049292328218E-01
-7.7262707106444417E-01
-7.6308647216295822E-01
-7.6224228672165439E-01
-7.5768724867402659E-01
-7.5401806293200102E-01
-7.5031228125674121E-01
-7.4641976115618669E-01
-7.4159726723161468E-01
-7.3843971190179991E-01
-7.2962497006455118E-01
-7.2777695644141283E-01
-7.1405071649093210E-01
-7.0814788842633458E-01
-6.9639160210660966E-01
-6.7668621255540118E-01
-6.6251929472329685E-01
-6.6009991979001004E-01
-6.5357796695806636E-01
-6.5127059785857033E-01
-6.4847294362159669E-01
-6.4575528922154135E-01
-6.4153323053414724E-01
-6.4052018874586880E-01
-6.3896539124346341E-01
-6.3573615350259394E-01
-6.3405910789565512E-01
-6.3326487994398173E-01
-6.2900360673044853E-01
-6.2724512805511745E-01
-6.2586571405922398E-01
-6.2414261452101061E-01
-6.1838082642040815E-01
-6.1559632752003457E-01
-6.1410026990847499E-01
-6.1035604033139612E-01
-6.0802136256140060E-01
-6.0734726804267380E-01
-6.0516425065000345E-01
-6.0370454445416133E-01
-6.0064454393009103E-01
-5.9936194857738523E-01
-5.9570120689540940E-01
-5.8949513992550284E-01
-5.8376945519313728E-01
-5.8221047847685847E-01
-5.5854921350598652E-01
QETSC: Iter time (min)       =  13.65
QETSC: Iter time (max)       =  20.22
QETSC: Iter time (avg)       =  17.66
QETSC: Num. of conv. evals   =         136
QETSC: Eigenvalue (1)        =-1.99872439717E+00
QETSC: Eigenvalue (nocc)     =-5.58549213506E-01
QETSC: Max differrence       = 5.13407032745E-02
QETSC: Safe iteration        =      F
QETSC: Finished iter            4
 *****************************************************************
 QETSC: Estimated eigenvalues         =
-2.0079365079365079E+00
-1.9957671957671956E+00
-1.9835978835978836E+00
-1.9714285714285713E+00
-1.9681096681096679E+00
-1.9647907647907648E+00
-1.9614718614718614E+00
-1.9581529581529580E+00
-1.9548340548340546E+00
-1.9515151515151514E+00
-1.9481962481962480E+00
-1.9448773448773446E+00
-1.9415584415584413E+00
-1.9382395382395381E+00
-1.9349206349206347E+00
-1.9321123321123319E+00
-1.9293040293040291E+00
-1.9264957264957263E+00
-1.9236874236874235E+00
-1.9208791208791207E+00
-1.9180708180708179E+00
-1.9152625152625151E+00
-1.9124542124542123E+00
-1.9096459096459095E+00
-1.9068376068376067E+00
-1.9040293040293039E+00
-1.9012210012210011E+00
-1.8984126984126983E+00
-1.8892857142857142E+00
-1.8801587301587301E+00
-1.8710317460317458E+00
-1.8619047619047617E+00
-1.1317460317460317E+00
-1.0952380952380951E+00
-1.0911816578483244E+00
-1.0871252204585538E+00
-1.0830687830687831E+00
-1.0790123456790124E+00
-1.0749559082892415E+00
-1.0708994708994708E+00
-1.0668430335097001E+00
-1.0627865961199294E+00
-1.0587301587301587E+00
-1.0556878306878308E+00
-1.0526455026455026E+00
-1.0496031746031746E+00
-1.0465608465608465E+00
-1.0435185185185185E+00
-1.0404761904761903E+00
-1.0374338624338624E+00
-1.0343915343915344E+00
-1.0313492063492062E+00
-1.0283068783068783E+00
-1.0252645502645501E+00
-1.0222222222222221E+00
-1.0170068027210883E+00
-1.0117913832199545E+00
-1.0065759637188207E+00
-1.0013605442176872E+00
-9.9614512471655325E-01
-9.9092970521541957E-01
-9.8571428571428577E-01
-9.7354497354497360E-01
-9.6137566137566133E-01
-8.7619047619047619E-01
-8.6402116402116402E-01
-8.5185185185185197E-01
-8.3968253968253981E-01
-8.3511904761904776E-01
-8.3055555555555571E-01
-8.2599206349206356E-01
-8.2142857142857151E-01
-8.1686507936507946E-01
-8.1230158730158730E-01
-8.0773809523809526E-01
-8.0317460317460321E-01
-7.9404761904761911E-01
-7.8492063492063491E-01
-7.7579365079365070E-01
-7.6666666666666661E-01
-7.6261022927689592E-01
-7.5855379188712524E-01
-7.5449735449735444E-01
-7.5044091710758376E-01
-7.4638447971781308E-01
-7.4232804232804239E-01
-7.3827160493827160E-01
-7.3421516754850091E-01
-7.3015873015873023E-01
-7.2407407407407409E-01
-7.1798941798941807E-01
-7.1190476190476193E-01
-7.0582010582010579E-01
-6.9973544973544977E-01
-6.9365079365079363E-01
-6.8148148148148147E-01
-6.6931216931216941E-01
-6.5714285714285725E-01
-6.5349206349206357E-01
-6.4984126984126989E-01
-6.4619047619047632E-01
-6.4253968253968263E-01
-6.3888888888888895E-01
-6.3523809523809527E-01
-6.3158730158730159E-01
-6.2793650793650801E-01
-6.2428571428571433E-01
-6.2063492063492065E-01
-6.1802721088435375E-01
-6.1541950113378685E-01
-6.1281179138321995E-01
-6.1020408163265316E-01
-6.0759637188208626E-01
-6.0498866213151936E-01
-6.0238095238095246E-01
-5.9977324263038556E-01
-5.9716553287981866E-01
-5.9455782312925176E-01
-5.9195011337868497E-01
-5.8934240362811807E-01
-5.8673469387755117E-01
-5.8412698412698427E-01
-5.7804232804232814E-01
-5.7195767195767211E-01
-5.6587301587301597E-01
-5.5978835978835984E-01
-5.5370370370370381E-01
 0.0000000000000000E+00
 QETSC: Bins             =
              -Infinity
-2.2999999999999998E+00
-2.2634920634920634E+00
-2.2269841269841266E+00
-2.1904761904761902E+00
-2.1539682539682539E+00
-2.1174603174603175E+00
-2.0809523809523807E+00
-2.0444444444444443E+00
-2.0079365079365079E+00
-1.9714285714285713E+00
-1.9349206349206347E+00
-1.8984126984126983E+00
-1.8619047619047617E+00
-1.8253968253968254E+00
-1.7888888888888888E+00
-1.7523809523809524E+00
-1.7158730158730158E+00
-1.6793650793650792E+00
-1.6428571428571428E+00
-1.6063492063492064E+00
-1.5698412698412698E+00
-1.5333333333333332E+00
-1.4968253968253968E+00
-1.4603174603174602E+00
-1.4238095238095236E+00
-1.3873015873015873E+00
-1.3507936507936509E+00
-1.3142857142857143E+00
-1.2777777777777777E+00
-1.2412698412698413E+00
-1.2047619047619047E+00
-1.1682539682539683E+00
-1.1317460317460317E+00
-1.0952380952380951E+00
-1.0587301587301587E+00
-1.0222222222222221E+00
-9.8571428571428577E-01
-9.4920634920634916E-01
-9.1269841269841279E-01
-8.7619047619047619E-01
-8.3968253968253981E-01
-8.0317460317460321E-01
-7.6666666666666661E-01
-7.3015873015873023E-01
-6.9365079365079363E-01
-6.5714285714285725E-01
-6.2063492063492065E-01
-5.8412698412698427E-01
-5.4761904761904767E-01
-5.1111111111111107E-01
-4.7460317460317469E-01
-4.3809523809523809E-01
-4.0158730158730171E-01
-3.6507936507936511E-01
-3.2857142857142874E-01
-2.9206349206349236E-01
-2.5555555555555554E-01
-2.1904761904761916E-01
-1.8253968253968278E-01
-1.4603174603174596E-01
-1.0952380952380958E-01
-7.3015873015873201E-02
-3.6507936507936822E-02
 0.0000000000000000E+00
QETSC: Started iter            5
QETSC: Bin type used         =           0
QETSC: Buffer used           = 0.00000000000E+00
QETSC: EPS interval          = -Infinity,     0.000
[...]
        MPI_SEND                 63       9.202    0.56
        MPI_RECV                 63      11.233    0.68
     overfsm                      1       0.230    0.01
     MolMec                       1       0.000    0.00
    state_analysis                1       0.013    0.00
    siesta_move                   1       0.000    0.00
   optical                        1       0.000    0.00
   MPI_BCAST                      3       0.000    0.00
   MPI_ALLGATHER                  2       0.044    0.00
   MPI_BARRIER                    2       0.145    0.01
  MPI_ALLGATHER                  56       1.224    0.07
  MPI_BCAST                       2       0.000    0.00
  MPI_RECV                        4       0.009    0.00
>> End of run:  23-SEP-2016  21:48:59
************************************************************************************************************************
***             WIDEN YOUR WINDOW TO 120 CHARACTERS.  Use 'enscript -r -fCourier9' to print this document            ***
************************************************************************************************************************

---------------------------------------------- PETSc Performance Summary: ----------------------------------------------

/home/keceli/lib/siesta-qetsc/Obj/siesta on a arch-gccopt named b444 with 64 processors, by keceli Fri Sep 23 21:48:59 2016
Using Petsc Development GIT revision: v3.7.3-1320-g04d0fa7  GIT Date: 2016-09-01 18:08:27 -0500

                         Max       Max/Min        Avg      Total 
Time (sec):           1.648e+03      1.00004   1.648e+03
Objects:              6.680e+02      1.53917   5.171e+02
Flops:                1.477e+11   1560.41496   5.334e+10  3.414e+12
Flops/sec:            8.966e+07   1560.42192   3.238e+07  2.072e+09
MPI Messages:         1.760e+02      1.16556   1.752e+02  1.121e+04
MPI Message Lengths:  1.208e+04      1.53885   6.806e+01  7.632e+05
MPI Reductions:       3.760e+02      1.00000

Flop counting convention: 1 flop = 1 real number operation of type (multiply/divide/add/subtract)
                            e.g., VecAXPY() for real vectors of length N --> 2N flops
                            and VecAXPY() for complex vectors of length N --> 8N flops

Summary of Stages:   ----- Time ------  ----- Flops -----  --- Messages ---  -- Message Lengths --  -- Reductions --
                        Avg     %Total     Avg     %Total   counts   %Total     Avg         %Total   counts   %Total 
 0:      Main Stage: 8.6061e-03   0.0%  0.0000e+00   0.0%  0.000e+00   0.0%  0.000e+00        0.0%  0.000e+00   0.0% 
 1:     siesta_init: 5.6884e-01   0.0%  0.0000e+00   0.0%  0.000e+00   0.0%  0.000e+00        0.0%  0.000e+00   0.0% 
 2:   siesta_forces: 1.1241e+02   6.8%  0.0000e+00   0.0%  0.000e+00   0.0%  0.000e+00        0.0%  0.000e+00   0.0% 
 3:    siesta_solve: 7.2546e-03   0.0%  0.0000e+00   0.0%  0.000e+00   0.0%  0.000e+00        0.0%  0.000e+00   0.0% 
 4:    siesta2qetsc: 3.3362e+00   0.2%  0.0000e+00   0.0%  8.064e+03  71.9%  6.637e+01       97.5%  8.500e+01  22.6% 
 5: qetsc_setup_eps: 5.9333e+01   3.6%  6.0586e+09   0.2%  0.000e+00   0.0%  0.000e+00        0.0%  6.800e+01  18.1% 
 6: qetsc_solve_eps: 3.0592e+02  18.6%  3.4080e+12  99.8%  3.150e+03  28.1%  1.685e+00        2.5%  1.860e+02  49.5% 
 7:   qetsc_eigvals: 1.5944e-03   0.0%  0.0000e+00   0.0%  0.000e+00   0.0%  0.000e+00        0.0%  0.000e+00   0.0% 
 8:   qetsc_density: 8.0410e+01   4.9%  0.0000e+00   0.0%  0.000e+00   0.0%  0.000e+00        0.0%  3.600e+01   9.6% 
10:     siesta_misc: 1.0840e+03  65.8%  0.0000e+00   0.0%  0.000e+00   0.0%  0.000e+00        0.0%  0.000e+00   0.0% 
11:     siesta_move: 5.5273e-04   0.0%  0.0000e+00   0.0%  0.000e+00   0.0%  0.000e+00        0.0%  0.000e+00   0.0% 
12: siesta_analysis: 6.0164e-03   0.0%  0.0000e+00   0.0%  0.000e+00   0.0%  0.000e+00        0.0%  0.000e+00   0.0% 
13:      siesta_end: 1.4770e+00   0.1%  0.0000e+00   0.0%  0.000e+00   0.0%  0.000e+00        0.0%  0.000e+00   0.0% 

------------------------------------------------------------------------------------------------------------------------
See the 'Profiling' chapter of the users' manual for details on interpreting output.
Phase summary info:
   Count: number of times phase was executed
   Time and Flops: Max - maximum over all processors
                   Ratio - ratio of maximum to minimum over all processors
   Mess: number of messages sent
   Avg. len: average message length (bytes)
   Reduct: number of global reductions
   Global: entire computation
   Stage: stages of a computation. Set stages with PetscLogStagePush() and PetscLogStagePop().
      %T - percent time in this phase         %F - percent flops in this phase
      %M - percent messages in this phase     %L - percent message lengths in this phase
      %R - percent reductions in this phase
   Total Mflop/s: 10e-6 * (sum of flops over all processors)/(max time over all processors)
------------------------------------------------------------------------------------------------------------------------
Event                Count      Time (sec)     Flops                             --- Global ---  --- Stage ---   Total
                   Max Ratio  Max     Ratio   Max  Ratio  Mess   Avg len Reduct  %T %F %M %L %R  %T %F %M %L %R Mflop/s
------------------------------------------------------------------------------------------------------------------------

--- Event Stage 0: Main Stage


--- Event Stage 1: siesta_init


--- Event Stage 2: siesta_forces


--- Event Stage 3: siesta_solve


--- Event Stage 4: siesta2qetsc

MatConvert            18 1.0 5.3550e-02 7.7 0.00e+00 0.0 0.0e+00 0.0e+00 0.0e+00  0  0  0  0  0   1  0  0  0  0     0
MatAssemblyBegin      19 1.0 1.5650e+00 1.7 0.00e+00 0.0 0.0e+00 0.0e+00 3.8e+01  0  0  0  0 10  37  0  0  0 45     0
MatAssemblyEnd        19 1.0 1.3977e+00 1.1 0.00e+00 0.0 8.1e+03 9.2e+01 4.5e+01  0  0 72 98 12  40  0100100 53     0
VecSet                19 1.0 7.4458e-03110.4 0.00e+00 0.0 0.0e+00 0.0e+00 0.0e+00  0  0  0  0  0   0  0  0  0  0     0

--- Event Stage 5: qetsc_setup_eps

MatConvert            17 1.0 8.2803e-01 1.9 0.00e+00 0.0 0.0e+00 0.0e+00 0.0e+00  0  0  0  0  0   1  0  0  0  0     0
MatScale              34 1.0 2.6674e-01 2.9 9.47e+07 1.0 0.0e+00 0.0e+00 0.0e+00  0  0  0  0  0   0100  0  0  0 22714
MatAssemblyBegin      17 1.0 8.5831e-06 0.0 0.00e+00 0.0 0.0e+00 0.0e+00 0.0e+00  0  0  0  0  0   0  0  0  0  0     0
MatAssemblyEnd        17 1.0 9.2692e-02 1.7 0.00e+00 0.0 0.0e+00 0.0e+00 0.0e+00  0  0  0  0  0   0  0  0  0  0     0
MatGetSubMatrice      17 1.0 5.9289e+01 1.0 0.00e+00 0.0 0.0e+00 0.0e+00 6.8e+01  4  0  0  0 18  98  0  0  0100     0
MatAXPY               17 1.0 3.0002e-01 2.1 0.00e+00 0.0 0.0e+00 0.0e+00 0.0e+00  0  0  0  0  0   0  0  0  0  0     0
MatRedundantMat       17 1.0 5.9974e+01 1.0 0.00e+00 0.0 0.0e+00 0.0e+00 6.8e+01  4  0  0  0 18  99  0  0  0100     0

--- Event Stage 6: qetsc_solve_eps

MatMult            12267 0.0 1.6629e+02 0.0 1.37e+11 0.0 0.0e+00 0.0e+00 0.0e+00  3 92  0  0  0  16 92  0  0  0 18956
MatSolve            4489 0.0 6.5968e+01 0.0 0.00e+00 0.0 0.0e+00 0.0e+00 0.0e+00  1  0  0  0  0   6  0  0  0  0     0
MatCholFctrSym         1 1.0 2.7088e+00 2.6 0.00e+00 0.0 0.0e+00 0.0e+00 0.0e+00  0  0  0  0  0   1  0  0  0  0     0
MatCholFctrNum        18 1.0 9.8244e+00 1.5 0.00e+00 0.0 0.0e+00 0.0e+00 0.0e+00  0  0  0  0  0   3  0  0  0  0     0
MatCopy               17 1.0 6.5887e+00 1.7 0.00e+00 0.0 0.0e+00 0.0e+00 0.0e+00  0  0  0  0  0   2  0  0  0  0     0
MatConvert             3 1.0 1.7254e-01 2.3 0.00e+00 0.0 0.0e+00 0.0e+00 0.0e+00  0  0  0  0  0   0  0  0  0  0     0
MatAssemblyBegin      37 1.0 1.0490e-05 8.8 0.00e+00 0.0 0.0e+00 0.0e+00 0.0e+00  0  0  0  0  0   0  0  0  0  0     0
MatAssemblyEnd        37 1.0 1.7044e-01 1.6 0.00e+00 0.0 0.0e+00 0.0e+00 0.0e+00  0  0  0  0  0   0  0  0  0  0     0
MatGetRow         154336 1.0 4.2409e-02 3.8 0.00e+00 0.0 0.0e+00 0.0e+00 0.0e+00  0  0  0  0  0   0  0  0  0  0     0
MatGetRowIJ            1 1.0 1.4067e-05 0.0 0.00e+00 0.0 0.0e+00 0.0e+00 0.0e+00  0  0  0  0  0   0  0  0  0  0     0
MatGetSubMatrice       2 1.0 9.6659e+00 1.0 0.00e+00 0.0 0.0e+00 0.0e+00 8.0e+00  1  0  0  0  2   3  0  0  0  4     0
MatGetOrdering         1 1.0 9.2030e-05 1.9 0.00e+00 0.0 0.0e+00 0.0e+00 0.0e+00  0  0  0  0  0   0  0  0  0  0     0
MatZeroEntries        17 1.0 1.3221e-01 1.8 0.00e+00 0.0 0.0e+00 0.0e+00 0.0e+00  0  0  0  0  0   0  0  0  0  0     0
MatAXPY               18 1.0 1.2146e+01 2.2 0.00e+00 0.0 0.0e+00 0.0e+00 0.0e+00  0  0  0  0  0   2  0  0  0  0     0
MatRedundantMat        2 1.0 9.7438e+00 1.0 0.00e+00 0.0 0.0e+00 0.0e+00 8.0e+00  1  0  0  0  2   3  0  0  0  4     0
VecDot               225 0.0 2.4080e-03 0.0 1.31e+06 0.0 0.0e+00 0.0e+00 0.0e+00  0  0  0  0  0   0  0  0  0  0  5905
VecCopy               18 0.0 4.1008e-05 0.0 0.00e+00 0.0 0.0e+00 0.0e+00 0.0e+00  0  0  0  0  0   0  0  0  0  0     0
VecSet              465859.0 8.0411e-0236.4 0.00e+00 0.0 0.0e+00 0.0e+00 0.0e+00  0  0  0  0  0   0  0  0  0  0     0
VecSetRandom          18 0.0 1.2209e-02 0.0 0.00e+00 0.0 0.0e+00 0.0e+00 0.0e+00  0  0  0  0  0   0  0  0  0  0     0
EPSSetUp              25 1.0 4.8346e+01 1.1 0.00e+00 0.0 3.2e+03 6.0e+00 7.8e+01  3  0 28  2 21  15  0100100 42     0
EPSSolve              18 1.0 2.8174e+02 1.0 1.48e+11 0.0 2.3e+03 6.0e+00 1.4e+02 17100 20  2 38  92100 72 72 77 12096
STSetUp               43 1.0 3.0077e+01 1.7 0.00e+00 0.0 0.0e+00 0.0e+00 2.0e+00  1  0  0  0  1   7  0  0  0  1     0
STApply             4489 0.0 1.2123e+02 0.0 5.00e+10 0.0 0.0e+00 0.0e+00 0.0e+00  2 33  0  0  0  12 33  0  0  0  9278
STMatSolve          4489 0.0 6.6182e+01 0.0 0.00e+00 0.0 0.0e+00 0.0e+00 0.0e+00  1  0  0  0  0   6  0  0  0  0     0
KSPSetUp              18 1.0 2.3365e-0512.2 0.00e+00 0.0 0.0e+00 0.0e+00 0.0e+00  0  0  0  0  0   0  0  0  0  0     0
KSPSolve            4489 0.0 6.6068e+01 0.0 0.00e+00 0.0 0.0e+00 0.0e+00 0.0e+00  1  0  0  0  0   6  0  0  0  0     0
PCSetUp               18 1.0 1.2370e+01 1.6 0.00e+00 0.0 0.0e+00 0.0e+00 0.0e+00  1  0  0  0  0   3  0  0  0  0     0
PCApply             4489 0.0 6.5977e+01 0.0 0.00e+00 0.0 0.0e+00 0.0e+00 0.0e+00  1  0  0  0  0   6  0  0  0  0     0
BVCreate              4010.0 1.9259e-01 1.7 0.00e+00 0.0 0.0e+00 0.0e+00 8.0e+00  0  0  0  0  2   0  0  0  0  4     0
BVCopy                18 0.0 5.8174e-05 0.0 0.00e+00 0.0 0.0e+00 0.0e+00 0.0e+00  0  0  0  0  0   0  0  0  0  0     0
BVMultVec           7725 0.0 2.8591e+00 0.0 5.43e+09 0.0 0.0e+00 0.0e+00 0.0e+00  0  4  0  0  0   0  4  0  0  0 43898
BVMultInPlace         18 0.0 7.7711e-02 0.0 3.14e+08 0.0 0.0e+00 0.0e+00 0.0e+00  0  0  0  0  0   0  0  0  0  0 43923
BVDotVec            7725 0.0 1.1098e+02 0.0 9.12e+10 0.0 0.0e+00 0.0e+00 0.0e+00  2 62  0  0  0  11 62  0  0  0 19164
BVOrthogonalizeV    4338 0.0 1.1296e+02 0.0 9.64e+10 0.0 0.0e+00 0.0e+00 0.0e+00  2 66  0  0  0  11 66  0  0  0 19940
BVScale             4489 0.0 3.7920e-02 0.0 1.31e+07 0.0 0.0e+00 0.0e+00 0.0e+00  0  0  0  0  0   0  0  0  0  0  7757
BVNormVec            225 0.0 2.6132e+00 0.0 2.51e+09 0.0 0.0e+00 0.0e+00 0.0e+00  0  1  0  0  0   0  1  0  0  0 10410
BVSetRandom           18 0.0 1.5171e-02 0.0 0.00e+00 0.0 0.0e+00 0.0e+00 0.0e+00  0  0  0  0  0   0  0  0  0  0     0
DSSolve               18 0.0 2.1656e-01 0.0 0.00e+00 0.0 0.0e+00 0.0e+00 0.0e+00  0  0  0  0  0   0  0  0  0  0     0
DSVectors           4320 0.0 1.3454e-03 0.0 0.00e+00 0.0 0.0e+00 0.0e+00 0.0e+00  0  0  0  0  0   0  0  0  0  0     0
DSOther               18 0.0 2.4013e-02 0.0 0.00e+00 0.0 0.0e+00 0.0e+00 0.0e+00  0  0  0  0  0   0  0  0  0  0     0

--- Event Stage 7: qetsc_eigvals


--- Event Stage 8: qetsc_density

MatConvert            36 1.0 1.4238e+00 1.3 0.00e+00 0.0 0.0e+00 0.0e+00 0.0e+00  0  0  0  0  0   1  0  0  0  0     0
MatGetValues        1656 3.3 2.7249e-01 4.0 0.00e+00 0.0 0.0e+00 0.0e+00 0.0e+00  0  0  0  0  0   0  0  0  0  0     0
VecCopy              225 0.0 1.2431e-02 0.0 0.00e+00 0.0 0.0e+00 0.0e+00 0.0e+00  0  0  0  0  0   0  0  0  0  0     0
VecSet                18 1.0 1.0610e-04 1.8 0.00e+00 0.0 0.0e+00 0.0e+00 0.0e+00  0  0  0  0  0   0  0  0  0  0     0
BVCopy               225 0.0 1.2893e-02 0.0 0.00e+00 0.0 0.0e+00 0.0e+00 0.0e+00  0  0  0  0  0   0  0  0  0  0     0

--- Event Stage 9: Unknown


--- Event Stage 10: siesta_misc


--- Event Stage 11: siesta_move


--- Event Stage 12: siesta_analysis


--- Event Stage 13: siesta_end

------------------------------------------------------------------------------------------------------------------------

Memory usage is given in bytes:

Object Type          Creations   Destructions     Memory  Descendants' Mem.
Reports information only for process 0.

--- Event Stage 0: Main Stage


--- Event Stage 1: siesta_init


--- Event Stage 2: siesta_forces


--- Event Stage 3: siesta_solve


--- Event Stage 4: siesta2qetsc

              Matrix    57              0            0     0.
              Vector    20              1         1648     0.
      Vector Scatter    19              0            0     0.
           Index Set     2              2        12760     0.

--- Event Stage 5: qetsc_setup_eps

              Matrix    34             51     18126012     0.
              Vector     0             17       406504     0.
      Vector Scatter     0             17        18224     0.
           Index Set    34              0            0     0.
          EPS Solver     1              0            0     0.
  Spectral Transform     1              0            0     0.
       Krylov Solver     1              0            0     0.
      Preconditioner     1              0            0     0.
       Basis Vectors     1              0            0     0.
         PetscRandom     1              0            0     0.
              Region     1              0            0     0.
       Direct Solver     1              0            0     0.

--- Event Stage 6: qetsc_solve_eps

              Matrix    24             18   1203708892     0.
              Vector   141            124      2071872     0.
           Index Set     8              3        18224     0.
          EPS Solver     1              0            0     0.
  Spectral Transform     1              0            0     0.
       Krylov Solver     1              0            0     0.
      Preconditioner     1              0            0     0.
       Basis Vectors    26             24        25344     0.
              Region     1              0            0     0.
       Direct Solver     1              0            0     0.

--- Event Stage 7: qetsc_eigvals


--- Event Stage 8: qetsc_density

              Matrix    36             36   2407417920     0.
              Vector    18             18       446832     0.

--- Event Stage 9: Unknown


--- Event Stage 10: siesta_misc


--- Event Stage 11: siesta_move


--- Event Stage 12: siesta_analysis


--- Event Stage 13: siesta_end

              Viewer     1              0            0     0.
========================================================================================================================
Average time to get PetscTime(): 0.
Average time for MPI_Barrier(): 0.022797
Average time for zero size MPI_Send(): 0.000643484
#PETSc Option Table entries:
-bintype 3
-eps_interval -2.3,0.
-eps_krylovschur_detect_zeros 0
-eps_krylovschur_nev 120
-eps_krylovschur_partitions 64
-ioptinertia 1
-ioptleft 2
-isglobal 0
-log_view
-mat_mumps_cntl_3 1e-12
-mat_mumps_icntl_13 1
-mat_mumps_icntl_24 1
-mat_mumps_icntl_28 1
-roptbuffer 0.1
-roptdiff 0.01
-roptleft -2.3
-roptright 0.
-st_pc_factor_mat_solver_package mkl_pardiso
-writeeigs 1
#End of PETSc Option Table entries
Compiled without FORTRAN kernels
Compiled with full precision matrices (default)
sizeof(short) 2 sizeof(int) 4 sizeof(long) 8 sizeof(void*) 8 sizeof(PetscScalar) 8 sizeof(PetscInt) 4
Configure options: --download-metis=1 --download-mumps=1 --download-parmetis=1 --download-ptscotch=1 --download-scalapack=1 --with-blas-lapack-dir=/soft/mkl/11.1.0.080/mkl/ --with-debugging=0 --with-mkl_pardiso-dir=/soft/mkl/11.1.0.080/mkl/ --with-shared-libraries=0 -COPTFLAGS="-O3 -g" -CXXOPTFLAGS="-O3 -g" -FOPTFLAGS="-O3 -g" CC=mpicc CXX=mpicxx FC=mpif90 PETSC_ARCH=arch-gccopt
-----------------------------------------
Libraries compiled on Fri Sep 23 14:58:29 2016 on blogin3 
Machine characteristics: Linux-2.6.32-642.1.1.el6.x86_64-x86_64-with-centos-6.7-Final
Using PETSc directory: /home/keceli/lib/petsc
Using PETSc arch: arch-gccopt
-----------------------------------------

Using C compiler: mpicc   -Wall -Wwrite-strings -Wno-strict-aliasing -Wno-unknown-pragmas -fvisibility=hidden -O3 -g  ${COPTFLAGS} ${CFLAGS}
Using Fortran compiler: mpif90  -Wall -ffree-line-length-0 -Wno-unused-dummy-argument -O3 -g   ${FOPTFLAGS} ${FFLAGS} 
-----------------------------------------

Using include paths: -I/home/keceli/lib/petsc/arch-gccopt/include -I/home/keceli/lib/petsc/include -I/home/keceli/lib/petsc/include -I/home/keceli/lib/petsc/arch-gccopt/include -I/soft/mkl/11.1.0.080/mkl/include -I/blues/gpfs/home/software/spack/opt/spack/linux-x86_64/gcc-5.3.0/mpich-3.2-wraqufukmp7yzyl6a644pnmda7wkg7w7/include
-----------------------------------------

Using C linker: mpicc
Using Fortran linker: mpif90
Using libraries: -Wl,-rpath,/home/keceli/lib/petsc/arch-gccopt/lib -L/home/keceli/lib/petsc/arch-gccopt/lib -lpetsc -Wl,-rpath,/home/keceli/lib/petsc/arch-gccopt/lib -L/home/keceli/lib/petsc/arch-gccopt/lib -lcmumps -ldmumps -lsmumps -lzmumps -lmumps_common -lpord -lscalapack -Wl,-rpath,/soft/mkl/11.1.0.080/mkl/lib/intel64 -L/soft/mkl/11.1.0.080/mkl/lib/intel64 -lmkl_intel_lp64 -lmkl_core -lmkl_intel_thread -liomp5 -ldl -lpthread -lm -lparmetis -lmetis -lptesmumps -lptscotch -lptscotcherr -lscotch -lscotcherr -lX11 -lhwloc -lpthread -lssl -lcrypto -lm -L/blues/gpfs/home/software/spack/opt/spack/linux-x86_64/gcc-4.4.7/gcc-5.3.0-fygfl7rvyuiteto27dlhmilp5cstw2o2/lib64 -L/blues/gpfs/home/software/spack/opt/spack/linux-x86_64/gcc-5.3.0/mpich-3.2-wraqufukmp7yzyl6a644pnmda7wkg7w7/lib -L/blues/gpfs/home/software/spack/opt/spack/linux-x86_64/gcc-4.4.7/gcc-5.3.0-fygfl7rvyuiteto27dlhmilp5cstw2o2/lib64/gcc/x86_64-unknown-linux-gnu/5.3.0 -L/soft/intel/13.1.3/lib/intel64 -L/soft/intel/13.1.3/ipp/lib/intel64 -L/soft/intel/13.1.3/tbb/lib/intel64/gcc4.4 -L/soft/lcrc/lib -lmpifort -lgfortran -lm -Wl,-rpath,/blues/gpfs/home/software/spack/opt/spack/linux-x86_64/gcc-4.4.7/gcc-5.3.0-fygfl7rvyuiteto27dlhmilp5cstw2o2/lib:/blues/gpfs/home/software/spack/opt/spack/linux-x86_64/gcc-4.4.7/gcc-5.3.0-fygfl7rvyuiteto27dlhmilp5cstw2o2/lib64 -Wl,-rpath,/blues/gpfs/home/software/spack/opt/spack/linux-x86_64/gcc-5.3.0/mpich-3.2-wraqufukmp7yzyl6a644pnmda7wkg7w7/lib -lgfortran -lm -lquadmath -lm -lmpicxx -lstdc++ -lrt -lm -lpthread -lz -Wl,-rpath,/blues/gpfs/home/software/spack/opt/spack/linux-x86_64/gcc-4.4.7/gcc-5.3.0-fygfl7rvyuiteto27dlhmilp5cstw2o2/lib:/blues/gpfs/home/software/spack/opt/spack/linux-x86_64/gcc-4.4.7/gcc-5.3.0-fygfl7rvyuiteto27dlhmilp5cstw2o2/lib64 -L/blues/gpfs/home/software/spack/opt/spack/linux-x86_64/gcc-5.3.0/mpich-3.2-wraqufukmp7yzyl6a644pnmda7wkg7w7/lib -L/blues/gpfs/home/software/spack/opt/spack/linux-x86_64/gcc-4.4.7/gcc-5.3.0-fygfl7rvyuiteto27dlhmilp5cstw2o2/lib64/gcc/x86_64-unknown-linux-gnu/5.3.0 -L/blues/gpfs/home/software/spack/opt/spack/linux-x86_64/gcc-4.4.7/gcc-5.3.0-fygfl7rvyuiteto27dlhmilp5cstw2o2/lib64 -L/soft/intel/13.1.3/lib/intel64 -L/soft/intel/13.1.3/ipp/lib/intel64 -L/soft/intel/13.1.3/tbb/lib/intel64/gcc4.4 -L/soft/lcrc/lib -L/blues/gpfs/home/software/spack/opt/spack/linux-x86_64/gcc-4.4.7/gcc-5.3.0-fygfl7rvyuiteto27dlhmilp5cstw2o2/lib64 -ldl -Wl,-rpath,/blues/gpfs/home/software/spack/opt/spack/linux-x86_64/gcc-5.3.0/mpich-3.2-wraqufukmp7yzyl6a644pnmda7wkg7w7/lib -lmpi -lgcc_s -ldl 
-----------------------------------------

