s.runSiesta: Submission time = 59s05m22h
s.runSiesta: Job name = w32_b0_c32_s64_n64
s.runSiesta: Number of ranks = 64
s.runSiesta: Number of slices = 64
59s05m22h
-bintype 3
-ioptinertia 1
-ioptleft 2
-isglobal 0
-roptleft -2.3
-roptright 0.
-writeeigs 1
-roptbuffer 0.1
-roptdiff 0.01
# A chain of identical atoms (instead of an xyz file) can be specified with the following options
#-N 10 # Number of atoms
#-Z 8 # Atomic number
#-c 32 # Maximum number of interactions of an atom

# A petsc matrix (binary) can be given
#-method file
#-fA '/Volumes/s/matrices/petscbinary/graphene_xxs_A'
#-fB '/Volumes/s/matrices/petscbinary/graphene_xxs_B'
#-scfthresh 1.e-3

#PETSc options

-log_view
#-mat_mumps_icntl_13 1 #turn off scaLAPACK for matrix inertia
#-mat_mumps_icntl_24 1 #null pivot row detection for matrix inertia
#-mat_mumps_icntl_23 0
-mat_mumps_icntl_28 1
#-mat_mumps_icntl_28 2
#-mat_mumps_icntl_29 1 # ptscotch
#-mat_mumps_icntl_29 2 # parmetis
#-malloc_info
#-mat_view ::ascii_info
#-mat_getrow_uppertriangular 1
#-st_type sinvert
#-st_ksp_type preonly
#-st_pc_type cholesky
#-st_pc_factor_mat_solver_package mumps
-st_pc_factor_mat_solver_package mkl_pardiso
#SLEPc options
#-eps_view
#-eps_view_values
#-eps_krylovschur_partitions 1
-eps_krylovschur_nev 120
-eps_interval -2.3,0.
#-eps_tol  1.e-8
-eps_krylovschur_detect_zeros 0
#-eps_purify 1
SystemName liquid_H2O_32
SystemLabel H2O_32

UseTreeTimer .true.
DM.MixingWeight 0.3
DM.NumberPulay 3

#SolutionMethod  slepc1 #slepc0 for the older method
SolutionMethod diagon
#BlockSize 23
WriteDM .false.
WriteDM.NetCDF .false.
WriteDMHS.NetCDF .false.
LongOutput .false.
#MaxSCFIterations 1
##################################################
# Do not change below this line                  #
##################################################

%block SuperCell
1 0 0
0 1 0
0 0 1
%endblock SuperCell

NumberOfAtoms 96
NumberOfSpecies 2
#MaxSCFIterations 1

xc.functional GGA
xc.authors PBE 
MeshCutoff 150.0 Ry

%block ChemicalSpeciesLabel
  1   8  O
  2   1  H  
%endblock ChemicalSpeciesLabel

#%block AtomicMass
#  2   2.0
#%endblock AtomicMass

%block PAO.Basis # qz+tp+dp'
O 4
n=2 0 4 E 50.0 8.0
 10.0 5.0 3.5 2.0
n=2 1 4 E 10.0 8.0
 10.0 5.0 3.5 2.0
n=3 2 3 E 40.0 9.0 Q 6.0 0.00
 10.0 2.0 3.0
n=4 3 2 E 50.0 9.0 Q 17.0 0.40
 10.0 1.7
H 3
n=1 0 4 E 50.0 9.0
 10.0 5.0 3.5 2.0
n=2 1 3 E 50.0 9.0 Q 3.5 0.00
 10.0 2.0 4.0
n=3 2 2 E 50.0 9.0 Q 16.0 0.80
 10.0 2.0
%endblock PAO.Basis

LatticeConstant 9.856391407574419 Ang
%block LatticeVectors   
  1.0  0.0  0.0
  0.0  1.0  0.0
  0.0  0.0  1.0
%endblock LatticeVectors   

AtomicCoordinatesFormat NotScaledCartesianAng
%block AtomicCoordinatesAndAtomicSpecies < coord32.data

Siesta Version: siesta-trunk-492
Architecture  : x86_64-unknown-linux-gnu--unknown
Compiler flags: mpif90 -g -O3 -I/home/keceli/lib/petsc/include -I/home/keceli/lib/petsc/arch--gccopt/include -I/home/keceli/lib/slepc/arch-gccopt/include -I/home/keceli/lib/slepc/include -I/soft/mkl/11.1.0.080/mkl/include -I/blues/gpfs/home/software/spack/opt/spack/linux-x86_64/gcc-5.3.0/mpich-3.2-wraqufukmp7yzyl6a644pnmda7wkg7w7/include
PP flags      : -DMPI -DMPI_TIMING -DFC_HAVE_FLUSH -DFC_HAVE_ABORT 
PARALLEL version

* Running on   64 nodes in parallel
>> Start of run:  23-SEP-2016  22:06:02

                           ***********************       
                           *  WELCOME TO SIESTA  *       
                           ***********************       
WARNING: Siesta is reading its input from file INPUT_DEBUG

reinit: -----------------------------------------------------------------------
reinit: System Name: liquid_H2O_32
reinit: -----------------------------------------------------------------------
reinit: System Label: H2O_32                                                      
reinit: -----------------------------------------------------------------------

initatom: Reading input for the pseudopotentials and atomic orbitals ----------
Species number:   1 Atomic number:    8 Label: O
Species number:   2 Atomic number:    1 Label: H

Ground state valence configuration:   2s02  2p04
Reading pseudopotential information in formatted form from O.psf

Valence configuration for pseudopotential generation:
2s( 2.00) rc: 1.14
2p( 4.00) rc: 1.14
3d( 0.00) rc: 1.14
4f( 0.00) rc: 1.14
Ground state valence configuration:   1s01
Reading pseudopotential information in formatted form from H.psf

Valence configuration for pseudopotential generation:
1s( 0.60) rc: 1.25
2p( 0.00) rc: 1.25
3d( 0.00) rc: 1.25
4f( 0.00) rc: 1.25
For O, standard SIESTA heuristics set lmxkb to 4
 (one more than the basis l, including polarization orbitals).
Use PS.lmax or PS.KBprojectors blocks to override.
Warning: For O lmxkb would have been set to 4
Setting it to maximum value of 3 (f projector)
For H, standard SIESTA heuristics set lmxkb to 3
 (one more than the basis l, including polarization orbitals).
Use PS.lmax or PS.KBprojectors blocks to override.

<basis_specs>
===============================================================================
O                    Z=   8    Mass=  16.000        Charge= 0.17977+309
Lmxo=3 Lmxkb= 3    BasisType=split      Semic=F
L=0  Nsemic=0  Cnfigmx=2
          n=1  nzeta=4  polorb=0
            splnorm:   0.15000    
               vcte:    50.000    
               rinn:    8.0000    
               qcoe:    0.0000    
               qyuk:    0.0000    
               qwid:   0.10000E-01
                rcs:    10.000      5.0000      3.5000      2.0000    
            lambdas:    1.0000      1.0000      1.0000      1.0000    
L=1  Nsemic=0  Cnfigmx=2
          n=1  nzeta=4  polorb=0
            splnorm:   0.15000    
               vcte:    10.000    
               rinn:    8.0000    
               qcoe:    0.0000    
               qyuk:    0.0000    
               qwid:   0.10000E-01
                rcs:    10.000      5.0000      3.5000      2.0000    
            lambdas:    1.0000      1.0000      1.0000      1.0000    
L=2  Nsemic=0  Cnfigmx=3
          n=1  nzeta=3  polorb=0
            splnorm:   0.15000    
               vcte:    40.000    
               rinn:    9.0000    
               qcoe:    6.0000    
               qyuk:    0.0000    
               qwid:   0.10000E-01
                rcs:    10.000      2.0000      3.0000    
            lambdas:    1.0000      1.0000      1.0000    
L=3  Nsemic=0  Cnfigmx=4
          n=1  nzeta=2  polorb=0
            splnorm:   0.15000    
               vcte:    50.000    
               rinn:    9.0000    
               qcoe:    17.000    
               qyuk:   0.40000    
               qwid:   0.10000E-01
                rcs:    10.000      1.7000    
            lambdas:    1.0000      1.0000    
-------------------------------------------------------------------------------
L=0  Nkbl=1  erefs: 0.17977+309
L=1  Nkbl=1  erefs: 0.17977+309
L=2  Nkbl=1  erefs: 0.17977+309
L=3  Nkbl=1  erefs: 0.17977+309
===============================================================================
</basis_specs>

atom: Called for O                     (Z =   8)

read_vps: Pseudopotential generation method:
read_vps: ATM3      Troullier-Martins                       
Total valence charge:    6.00000

read_vps: Pseudopotential includes a core correction:
read_vps: Pseudo-core for xc-correction

xc_check: Exchange-correlation functional:
xc_check: GGA Perdew, Burke & Ernzerhof 1996
V l=0 = -2*Zval/r beyond r=  1.1278
V l=1 = -2*Zval/r beyond r=  1.1278
V l=2 = -2*Zval/r beyond r=  1.1278
V l=3 = -2*Zval/r beyond r=  1.1278
All V_l potentials equal beyond r=  1.1278
This should be close to max(r_c) in ps generation
All pots = -2*Zval/r beyond r=  1.1278

VLOCAL1: 99.0% of the norm of Vloc inside     34.126 Ry
VLOCAL1: 99.9% of the norm of Vloc inside     77.774 Ry
atom: Maximum radius for 4*pi*r*r*local-pseudopot. charge    1.37759
atom: Maximum radius for r*vlocal+2*Zval:    1.18566
GHOST: No ghost state for L =  0
GHOST: No ghost state for L =  1
GHOST: No ghost state for L =  2
GHOST: No ghost state for L =  3

KBgen: Kleinman-Bylander projectors: 
   l= 0   rc=  1.262145   el= -1.757696   Ekb=  9.253654   kbcos=  0.328369
   l= 1   rc=  1.262145   el= -0.664256   Ekb= -7.897175   kbcos= -0.393093
   l= 2   rc=  1.343567   el=  0.002031   Ekb= -1.922379   kbcos= -0.003517
   l= 3   rc=  1.394919   el=  0.003153   Ekb= -0.738278   kbcos= -0.000358

KBgen: Total number of  Kleinman-Bylander projectors:   16
atom: -------------------------------------------------------------------------

atom: SANKEY-TYPE ORBITALS:
atom: Selected multiple-zeta basis: split     

SPLIT: Orbitals with angular momentum L= 0

SPLIT: Basis orbitals for state 2s

   izeta = 1
                 lambda =    1.000000
                     rc =   10.181049
                 energy =   -1.757767
                kinetic =    1.546187
    potential(screened) =   -3.303954
       potential(ionic) =  -11.175858

   izeta = 2
                 rmatch =    5.055603
              splitnorm =    0.001043
                 energy =   -1.756217
* WARNING: effective split_norm is quite small. Orbitals will be very similar.
                kinetic =    1.590301
    potential(screened) =   -3.346518
       potential(ionic) =  -11.267994

   izeta = 3
                 rmatch =    3.562532
              splitnorm =    0.023118
                 energy =   -1.724097
* WARNING: effective split_norm is quite small. Orbitals will be very similar.
                kinetic =    1.812689
    potential(screened) =   -3.536786
       potential(ionic) =  -11.661476

   izeta = 4
                 rmatch =    2.004519
              splitnorm =    0.368983
                 energy =   -0.954778
                kinetic =    3.368396
    potential(screened) =   -4.323174
       potential(ionic) =  -13.178438

SPLIT: Orbitals with angular momentum L= 1

SPLIT: Basis orbitals for state 2p

   izeta = 1
                 lambda =    1.000000
                     rc =   10.181049
                 energy =   -0.664314
                kinetic =    4.714332
    potential(screened) =   -5.378647
       potential(ionic) =  -12.967201

   izeta = 2
                 rmatch =    5.055603
              splitnorm =    0.008251
                 energy =   -0.656950
* WARNING: effective split_norm is quite small. Orbitals will be very similar.
                kinetic =    4.990409
    potential(screened) =   -5.647359
       potential(ionic) =  -13.410842

   izeta = 3
                 rmatch =    3.562532
              splitnorm =    0.055493
                 energy =   -0.601809
                kinetic =    5.759592
    potential(screened) =   -6.361401
       potential(ionic) =  -14.486952

   izeta = 4
                 rmatch =    2.004519
              splitnorm =    0.336744
                 energy =    0.137909
                kinetic =    9.626817
    potential(screened) =   -9.488908
       potential(ionic) =  -18.577571

SPLIT: Orbitals with angular momentum L= 2

SPLIT: Basis orbitals for state 3d
Charge confinement: Q:     6.0000

   izeta = 1
                 lambda =    1.000000
                     rc =   10.181049
                 energy =    2.007653
                kinetic =    3.859620
    potential(screened) =   -1.851967
       potential(ionic) =   -7.803212

   izeta = 2
                 rmatch =    2.004519
              splitnorm =    0.637208
                 energy =    6.650039
                kinetic =   11.560126
    potential(screened) =   -4.910087
       potential(ionic) =  -13.161977

   izeta = 3
                 rmatch =    2.990543
              splitnorm =    0.263953
                 energy =    3.559882
                kinetic =    6.528543
    potential(screened) =   -2.968661
       potential(ionic) =  -10.107962

SPLIT: Orbitals with angular momentum L= 3

SPLIT: Basis orbitals for state 4f
Charge confinement: Q:    17.0000

   izeta = 1
                 lambda =    1.000000
                     rc =   10.181049
                 energy =    4.609453
                kinetic =    6.179676
    potential(screened) =   -1.570223
       potential(ionic) =   -7.410991

   izeta = 2
                 rmatch =    1.725262
              splitnorm =    0.752552
                 energy =   15.780374
                kinetic =   20.445907
    potential(screened) =   -4.665533
       potential(ionic) =  -12.986389
atom: Total number of Sankey-type orbitals: 45

atm_pop: Valence configuration (for local Pseudopot. screening):
 2s( 2.00)                                                            
 2p( 4.00)                                                            
 3d( 0.00)                                                            
 4f( 0.00)                                                            
Vna: chval, zval:    6.00000   6.00000

Vna:  Cut-off radius for the neutral-atom potential:  10.181049
comcore: Pseudo-core radius Rcore=  1.377587

atom: _________________________________________________________________________

<basis_specs>
===============================================================================
H                    Z=   1    Mass=  1.0100        Charge= 0.17977+309
Lmxo=2 Lmxkb= 3    BasisType=split      Semic=F
L=0  Nsemic=0  Cnfigmx=1
          n=1  nzeta=4  polorb=0
            splnorm:   0.15000    
               vcte:    50.000    
               rinn:    9.0000    
               qcoe:    0.0000    
               qyuk:    0.0000    
               qwid:   0.10000E-01
                rcs:    10.000      5.0000      3.5000      2.0000    
            lambdas:    1.0000      1.0000      1.0000      1.0000    
L=1  Nsemic=0  Cnfigmx=2
          n=1  nzeta=3  polorb=0
            splnorm:   0.15000    
               vcte:    50.000    
               rinn:    9.0000    
               qcoe:    3.5000    
               qyuk:    0.0000    
               qwid:   0.10000E-01
                rcs:    10.000      2.0000      4.0000    
            lambdas:    1.0000      1.0000      1.0000    
L=2  Nsemic=0  Cnfigmx=3
          n=1  nzeta=2  polorb=0
            splnorm:   0.15000    
               vcte:    50.000    
               rinn:    9.0000    
               qcoe:    16.000    
               qyuk:   0.80000    
               qwid:   0.10000E-01
                rcs:    10.000      2.0000    
            lambdas:    1.0000      1.0000    
-------------------------------------------------------------------------------
L=0  Nkbl=1  erefs: 0.17977+309
L=1  Nkbl=1  erefs: 0.17977+309
L=2  Nkbl=1  erefs: 0.17977+309
L=3  Nkbl=1  erefs: 0.17977+309
===============================================================================
</basis_specs>

atom: Called for H                     (Z =   1)

read_vps: Pseudopotential generation method:
read_vps: ATM 3.2.2 Troullier-Martins                       
Total valence charge:    0.60000

atom: Pseudopotential generated from an ionic configuration
atom: with net charge 0.40

xc_check: Exchange-correlation functional:
xc_check: GGA Perdew, Burke & Ernzerhof 1996
xc_check: WARNING: Pseudopotential generated with GGA revPBE functional
V l=0 = -2*Zval/r beyond r=  1.2343
V l=1 = -2*Zval/r beyond r=  1.2189
V l=2 = -2*Zval/r beyond r=  1.2189
V l=3 = -2*Zval/r beyond r=  1.2038
All V_l potentials equal beyond r=  1.2343
This should be close to max(r_c) in ps generation
All pots = -2*Zval/r beyond r=  1.2343

VLOCAL1: 99.0% of the norm of Vloc inside     28.493 Ry
VLOCAL1: 99.9% of the norm of Vloc inside     64.935 Ry
atom: Maximum radius for 4*pi*r*r*local-pseudopot. charge    1.45251
atom: Maximum radius for r*vlocal+2*Zval:    1.21892
GHOST: No ghost state for L =  0
GHOST: No ghost state for L =  1
GHOST: No ghost state for L =  2
GHOST: No ghost state for L =  3

KBgen: Kleinman-Bylander projectors: 
   l= 0   rc=  1.364359   el= -0.835481   Ekb= -2.050473   kbcos= -0.374935
   l= 1   rc=  1.434438   el= -0.083696   Ekb= -0.439790   kbcos= -0.040392
   l= 2   rc=  1.470814   el= -0.018512   Ekb= -0.135383   kbcos= -0.004767
   l= 3   rc=  1.508111   el= -0.010355   Ekb= -0.058408   kbcos= -0.000784

KBgen: Total number of  Kleinman-Bylander projectors:   16
atom: -------------------------------------------------------------------------

atom: SANKEY-TYPE ORBITALS:
atom: Selected multiple-zeta basis: split     

atom: basis set generated from the ionic configuration used
atom: to generate the pseudopotential

SPLIT: Orbitals with angular momentum L= 0

SPLIT: Basis orbitals for state 1s

   izeta = 1
                 lambda =    1.000000
                     rc =    9.971704
                 energy =   -0.835496
                kinetic =    1.039073
    potential(screened) =   -1.874569
       potential(ionic) =   -2.037700

   izeta = 2
                 rmatch =    5.075940
              splitnorm =    0.029735
                 energy =   -0.816789
* WARNING: effective split_norm is quite small. Orbitals will be very similar.
                kinetic =    1.252128
    potential(screened) =   -2.068916
       potential(ionic) =   -2.226196

   izeta = 3
                 rmatch =    3.487864
              splitnorm =    0.176430
                 energy =   -0.691872
                kinetic =    1.782572
    potential(screened) =   -2.474444
       potential(ionic) =   -2.615176

   izeta = 4
                 rmatch =    2.011274
              splitnorm =    0.598000
                 energy =    0.301433
                kinetic =    3.884637
    potential(screened) =   -3.583203
       potential(ionic) =   -3.672637

SPLIT: Orbitals with angular momentum L= 1

SPLIT: Basis orbitals for state 2p
Charge confinement: Q:     3.5000

   izeta = 1
                 lambda =    1.000000
                     rc =    9.971704
                 energy =    0.711778
                kinetic =    1.888566
    potential(screened) =   -1.176788
       potential(ionic) =   -1.368090

   izeta = 2
                 rmatch =    2.011274
              splitnorm =    0.691729
                 energy =    4.504307
                kinetic =    6.792143
    potential(screened) =   -2.287836
       potential(ionic) =   -2.425880

   izeta = 3
                 rmatch =    4.052721
              splitnorm =    0.089367
                 energy =    1.150580
                kinetic =    2.529067
    potential(screened) =   -1.378487
       potential(ionic) =   -1.566684

SPLIT: Orbitals with angular momentum L= 2

SPLIT: Basis orbitals for state 3d
Charge confinement: Q:    16.0000

   izeta = 1
                 lambda =    1.000000
                     rc =    9.971704
                 energy =    3.555650
                kinetic =    4.803510
    potential(screened) =   -1.247860
       potential(ionic) =   -1.438034

   izeta = 2
                 rmatch =    2.011274
              splitnorm =    0.525433
                 energy =    9.861824
                kinetic =   11.896576
    potential(screened) =   -2.034751
       potential(ionic) =   -2.186933
atom: Total number of Sankey-type orbitals: 23

atm_pop: Valence configuration (for local Pseudopot. screening):
 1s( 1.00)                                                            
 2p( 0.00)                                                            
 3d( 0.00)                                                            
Vna: chval, zval:    1.00000   1.00000

Vna:  Cut-off radius for the neutral-atom potential:   9.971704

atom: _________________________________________________________________________

prinput: Basis input ----------------------------------------------------------

PAO.BasisType split     

%block ChemicalSpeciesLabel
    1    8 O                       # Species index, atomic number, species label
    2    1 H                       # Species index, atomic number, species label
%endblock ChemicalSpeciesLabel

%block PAO.Basis                 # Define Basis set
O                     4                    # Species label, number of l-shells
 n=2   0   4                         # n, l, Nzeta 
  10.181      5.056      3.563      2.005   
   1.000      1.000      1.000      1.000   
 n=2   1   4                         # n, l, Nzeta 
  10.181      5.056      3.563      2.005   
   1.000      1.000      1.000      1.000   
 n=3   2   3                         # n, l, Nzeta 
  10.181      2.005      2.991   
   1.000      1.000      1.000   
 n=4   3   2                         # n, l, Nzeta 
  10.181      1.725   
   1.000      1.000   
H                     3   0.400            # Label, l-shells, ionic net charge
 n=1   0   4                         # n, l, Nzeta 
   9.972      5.076      3.488      2.011   
   1.000      1.000      1.000      1.000   
 n=2   1   3                         # n, l, Nzeta 
   9.972      2.011      4.053   
   1.000      1.000      1.000   
 n=3   2   2                         # n, l, Nzeta 
   9.972      2.011   
   1.000      1.000   
%endblock PAO.Basis

prinput: ----------------------------------------------------------------------

coor:   Atomic-coordinates input format  =     Cartesian coordinates
coor:                                          (in Angstroms)

siesta: Atomic coordinates (Bohr) and species
siesta:      3.11805   4.32747  14.55090  1        1
siesta:      2.19208   4.72432  16.06268  2        2
siesta:      1.88973   3.53379  13.47375  2        3
siesta:      9.78879  17.85792  16.42173  1        4
siesta:      8.31480  18.12248  15.40127  2        5
siesta:      9.69430  16.11937  16.91306  2        6
siesta:     12.94463   8.91951   5.14006  1        7
siesta:     12.90683   8.35259   3.42041  2        8
siesta:     14.45641   8.20141   5.82036  2        9
siesta:     10.58247   7.14317  18.42484  1       10
siesta:      9.95886   7.06758  16.72408  2       11
siesta:      9.08959   7.23765  19.42639  2       12
siesta:      0.66140   8.93841  13.68162  1       13
siesta:     -0.98266   9.67540  13.66273  2       14
siesta:      0.49133   7.46442  14.70208  2       15
siesta:      5.74477   0.49133  12.62338  1       16
siesta:      7.23765   0.73699  11.62182  2       17
siesta:      5.27234   2.15429  13.15250  2       18
siesta:      1.37950  17.76343  18.16028  1       19
siesta:     -0.05669  16.70519  17.85792  2       20
siesta:      1.09604  18.48153  19.78544  2       21
siesta:     11.50844  13.81390   5.53690  1       22
siesta:      9.76989  13.62493   5.02667  2       23
siesta:     12.01866  12.15094   6.00933  2       24
siesta:     12.98242  15.26899  10.31791  1       25
siesta:     13.88949  13.88949  11.01711  2       26
siesta:     12.43440  14.66428   8.69274  2       27
siesta:      2.57003   6.84081   9.41084  1       28
siesta:      4.19519   6.31169  10.01555  2       29
siesta:      1.68186   7.36993  10.90372  2       30
siesta:      5.38572   1.02045   3.25033  1       31
siesta:      4.95108   1.54958   1.56847  2       32
siesta:      3.77945   0.86927   4.10071  2       33
siesta:      5.76367  14.32413   3.81725  1       34
siesta:      5.99043  16.10047   3.49599  2       35
siesta:      5.63139  14.19185   5.61249  2       36
siesta:      5.82036   9.78879  15.51466  1       37
siesta:      5.17785  10.37460  17.10203  2       38
siesta:      4.36527   9.75099  14.41862  2       39
siesta:     12.11315   4.72432  12.98242  1       40
siesta:     12.03756   2.92908  13.26588  2       41
siesta:     13.85170   5.06447  12.60448  2       42
siesta:     14.47531   0.00000   4.08181  1       43
siesta:     12.79345  -0.37795   4.62983  2       44
siesta:     14.22964   1.02045   2.60782  2       45
siesta:      9.22187  10.69585  11.69741  1       46
siesta:      8.18252  10.26122  13.11470  2       47
siesta:      9.54312   9.10848  10.86593  2       48
siesta:      2.92908  11.11159   1.28501  1       49
siesta:      3.83615  12.39661   2.15429  2       50
siesta:      1.19053  11.58403   1.45509  2       51
siesta:      2.70231  15.11782  14.17295  1       52
siesta:      1.75745  13.88949  15.09892  2       53
siesta:      2.55113  16.62960  15.17451  2       54
siesta:     15.28789  14.17295  17.02644  1       55
siesta:     15.81701  13.88949  18.72719  2       56
siesta:     13.85170  15.25010  17.17762  2       57
siesta:     17.49887   5.10226  -0.26456  1       58
siesta:     17.57446   5.29124   1.53068  2       59
siesta:     15.94929   4.19519  -0.54802  2       60
siesta:      6.55735   7.21876   2.79680  1       61
siesta:      5.55580   8.73054   2.85349  2       62
siesta:      5.36682   5.87705   3.11805  2       63
siesta:      0.03779   7.19986   4.72432  1       64
siesta:      0.64251   7.42663   6.40617  2       65
siesta:      1.36060   7.88016   3.68497  2       66
siesta:     17.23431   2.66451  11.28167  1       67
siesta:     17.76343   0.94486  11.01711  2       68
siesta:     17.04534   3.34482   9.59981  2       69
siesta:      7.95575   5.68808  10.16673  1       70
siesta:      9.31635   5.31013  11.30057  2       71
siesta:      8.01244   4.36527   8.93841  2       72
siesta:     16.83747  13.54934   3.55269  1       73
siesta:     15.23120  13.47375   4.38417  2       74
siesta:     17.85792  14.56979   4.62983  2       75
siesta:     17.97130  16.00599   9.92107  1       76
siesta:     18.95396  15.68473  11.39505  2       77
siesta:     16.25165  15.94929  10.50688  2       78
siesta:     14.17295  10.84703  13.00132  1       79
siesta:     14.39972  12.20764  14.17295  2       80
siesta:     12.39661  10.82814  12.68007  2       81
siesta:      9.01400   0.69920   6.78412  1       82
siesta:      8.42818  -0.83148   7.54001  2       83
siesta:      8.08803   0.83148   5.23454  2       84
siesta:      6.02823  14.58869   9.16518  1       85
siesta:      7.14317  13.22809   9.63761  2       86
siesta:      5.78256  15.51466  10.69585  2       87
siesta:      0.77479  18.50043   5.53690  1       88
siesta:      0.56692  17.82012   7.19986  2       89
siesta:     -0.90707  18.65160   4.89439  2       90
siesta:     13.03912   2.70231  18.31145  1       91
siesta:     11.98087   4.15740  18.27366  2       92
siesta:     11.99977   1.34171  17.72564  2       93
siesta:      9.63761  12.92573  17.66895  1       94
siesta:      8.18252  12.26433  16.83747  2       95
siesta:     10.48798  11.45174  18.31145  2       96

siesta: System type = bulk      

initatomlists: Number of atoms, orbitals, and projectors:     96  2912  1536

siesta: ******************** Simulation parameters ****************************
siesta:
siesta: The following are some of the parameters of the simulation.
siesta: A complete list of the parameters used, including default values,
siesta: can be found in file out.fdf
siesta:
redata: Non-Collinear-spin run           =     F
redata: SpinPolarized (Up/Down) run      =     F
redata: Number of spin components        =     1
redata: Long output                      =     F
redata: Number of Atomic Species         =        2
redata: Charge density info will appear in .RHO file
redata: Write Mulliken Pop.              =     NO
redata: Mesh Cutoff                      =   150.0000  Ry
redata: Net charge of the system         =     0.0000 |e|
redata: Min. number of SCF Iter          =        0
redata: Max. number of SCF Iter          =       50
redata: Mix DM or H after convergence    =     F
redata: Recompute H after scf cycle      =     F
redata: Performing Pulay mixing using    =     3 iterations
redata: Mix DM in first SCF step ?       =     F
redata: Write Pulay info on disk?        =     F
redata: Discard 1st Pulay DM after  kick =     F
redata: New DM Mixing Weight             =     0.3000
redata: New DM Occupancy tolerance       = 0.000000000001
redata: No kicks to SCF
redata: DM Mixing Weight for Kicks       =     0.5000
redata: DM Tolerance for SCF             =     0.000100
redata: Require (free) Energy convergence in SCF =     F
redata: DM (free)Energy tolerance for SCF =     0.000010 eV
redata: Require Harris convergence for SCF =     F
redata: DM Harris energy tolerance for SCF =     0.000010 eV
redata: Using Saved Data (generic)   =     F
redata: Use continuation files for DM    =     F
redata: Neglect nonoverlap interactions  =     F
redata: Method of Calculation            =     Diagonalization
redata: Divide and Conquer               =     T
redata: Electronic Temperature           =     0.0019  Ry
redata: Fix the spin of the system       =     F
redata: Dynamics option                  =     Single-point calculation
redata: ***********************************************************************
Total number of electrons:   256.000000
Total ionic charge:   256.000000

* ProcessorY, Blocksize:    8  46


* Orbital distribution balance (max,min):    46    14

 Kpoints in:            1 . Kpoints trimmed:            1

siesta: k-grid: Number of k-points =     1
siesta: k-grid: Cutoff (effective) =     4.928 Ang
siesta: k-grid: Supercell and displacements
siesta: k-grid:    1   0   0      0.000
siesta: k-grid:    0   1   0      0.000
siesta: k-grid:    0   0   1      0.000

                     ====================================
                        Single-point calculation
                     ====================================

outcell: Unit cell vectors (Ang):
        9.856391    0.000000    0.000000
        0.000000    9.856391    0.000000
        0.000000    0.000000    9.856391

outcell: Cell vector modules (Ang)   :    9.856391    9.856391    9.856391
outcell: Cell angles (23,13,12) (deg):     90.0000     90.0000     90.0000
outcell: Cell volume (Ang**3)        :    957.5332
 Folding of H and S is implicitly performed
New_DM. Step:     1
Initializing Density Matrix...
New grid distribution:   1
           1       1:   40    1:    5    1:    5
           2       1:   40    1:    5    6:   10
           3       1:   40    1:    5   11:   15
           4       1:   40    1:    5   16:   20
           5       1:   40    1:    5   21:   25
           6       1:   40    1:    5   26:   30
           7       1:   40    1:    5   31:   35
           8       1:   40    1:    5   36:   40
           9       1:   40    6:   10    1:    5
          10       1:   40    6:   10    6:   10
          11       1:   40    6:   10   11:   15
          12       1:   40    6:   10   16:   20
          13       1:   40    6:   10   21:   25
          14       1:   40    6:   10   26:   30
          15       1:   40    6:   10   31:   35
          16       1:   40    6:   10   36:   40
          17       1:   40   11:   15    1:    5
          18       1:   40   11:   15    6:   10
          19       1:   40   11:   15   11:   15
          20       1:   40   11:   15   16:   20
          21       1:   40   11:   15   21:   25
          22       1:   40   11:   15   26:   30
          23       1:   40   11:   15   31:   35
          24       1:   40   11:   15   36:   40
          25       1:   40   16:   20    1:    5
          26       1:   40   16:   20    6:   10
          27       1:   40   16:   20   11:   15
          28       1:   40   16:   20   16:   20
          29       1:   40   16:   20   21:   25
          30       1:   40   16:   20   26:   30
          31       1:   40   16:   20   31:   35
          32       1:   40   16:   20   36:   40
          33       1:   40   21:   25    1:    5
          34       1:   40   21:   25    6:   10
          35       1:   40   21:   25   11:   15
          36       1:   40   21:   25   16:   20
          37       1:   40   21:   25   21:   25
          38       1:   40   21:   25   26:   30
          39       1:   40   21:   25   31:   35
          40       1:   40   21:   25   36:   40
          41       1:   40   26:   30    1:    5
          42       1:   40   26:   30    6:   10
          43       1:   40   26:   30   11:   15
          44       1:   40   26:   30   16:   20
          45       1:   40   26:   30   21:   25
          46       1:   40   26:   30   26:   30
          47       1:   40   26:   30   31:   35
          48       1:   40   26:   30   36:   40
          49       1:   40   31:   35    1:    5
          50       1:   40   31:   35    6:   10
          51       1:   40   31:   35   11:   15
          52       1:   40   31:   35   16:   20
          53       1:   40   31:   35   21:   25
          54       1:   40   31:   35   26:   30
          55       1:   40   31:   35   31:   35
          56       1:   40   31:   35   36:   40
          57       1:   40   36:   40    1:    5
          58       1:   40   36:   40    6:   10
          59       1:   40   36:   40   11:   15
          60       1:   40   36:   40   16:   20
          61       1:   40   36:   40   21:   25
          62       1:   40   36:   40   26:   30
          63       1:   40   36:   40   31:   35
          64       1:   40   36:   40   36:   40

InitMesh: MESH =    80 x    80 x    80 =      512000
InitMesh: (bp) =    40 x    40 x    40 =       64000
InitMesh: Mesh cutoff (required, used) =   150.000   182.073 Ry
ExtMesh (bp) on 0 =   128 x    93 x    93 =     1107072
New grid distribution:   2
           1      11:   20   11:   21   21:   30
           2      11:   20    1:   10   21:   30
           3      21:   30    1:   10    1:   10
           4      21:   29   31:   40   31:   40
           5       1:   10   11:   21   31:   40
           6      31:   40    1:   10    1:   10
           7      11:   20    1:   10   31:   40
           8      21:   30   22:   30   21:   30
           9       1:   10   11:   21   21:   30
          10       1:   10    1:   10   21:   30
          11      31:   40    1:   10   11:   20
          12      31:   40   22:   30   21:   30
          13      21:   30   11:   21   21:   30
          14      21:   30    1:   10   11:   20
          15       1:   10    1:   10   31:   40
          16      21:   30   22:   30    1:   10
          17      21:   30   11:   21    1:   10
          18      31:   40   22:   30    1:   10
          19      31:   40   11:   21   11:   20
          20      11:   20   12:   21   11:   20
          21      21:   30    1:   10   31:   40
          22      31:   40   31:   40    1:   10
          23      21:   30   11:   21   31:   40
          24      21:   30   32:   40   11:   20
          25      31:   40   11:   21    1:   10
          26      11:   20   22:   31   31:   40
          27       1:   10   12:   21   11:   20
          28       1:   10   32:   40    1:   10
          29      31:   40   11:   21   21:   30
          30      31:   40    1:   10   31:   40
          31      21:   30   22:   31   11:   20
          32      11:   20   32:   40   21:   30
          33      31:   40    1:   10   21:   30
          34       1:   10   22:   31    1:   10
          35      21:   30   11:   21   11:   20
          36       1:   10   32:   40   11:   20
          37       1:   10   22:   31   21:   30
          38      21:   30   31:   40    1:   10
          39      31:   40   11:   21   31:   40
          40      21:   30   22:   30   31:   40
          41      11:   20   11:   21   31:   40
          42      21:   30    1:   10   21:   30
          43       1:   10   22:   31   11:   20
          44      11:   20   32:   40    1:   10
          45       1:   10    1:   11   11:   20
          46      11:   20   22:   31   21:   30
          47       1:   10    1:   10    1:   10
          48      31:   40   22:   30   31:   40
          49      11:   20   11:   21    1:   10
          50       1:   10   22:   31   31:   40
          51      11:   20   22:   31   11:   20
          52      31:   40   32:   40   11:   20
          53      11:   20    1:   11   11:   20
          54      31:   40   31:   40   21:   30
          55      31:   40   22:   31   11:   20
          56      11:   20   32:   40   31:   40
          57       1:   10   11:   21    1:   10
          58      11:   20   22:   31    1:   10
          59      11:   20    1:   10    1:   10
          60      11:   20   32:   40   11:   20
          61      21:   30   31:   40   21:   30
          62       1:   10   32:   40   21:   30
          63      30:   40   31:   40   31:   40
          64       1:   10   32:   40   31:   40
New grid distribution:   3
           1      21:   30   11:   20   31:   40
           2      21:   30   31:   40   31:   40
           3      21:   30   11:   20    1:   10
           4      21:   30   31:   40    1:   10
           5      21:   30    1:   10   21:   30
           6      31:   40   31:   40   31:   40
           7      31:   40   11:   20    1:   10
           8      31:   40   31:   40    1:   10
           9      31:   40   11:   20   31:   40
          10      21:   30   21:   30   31:   40
          11      21:   30    1:   10    1:   10
          12      21:   30   21:   30    1:   10
          13      31:   40    1:   10   21:   30
          14      31:   40   21:   30   31:   40
          15      31:   40    1:   10    1:   10
          16      31:   40   21:   30    1:   10
          17      21:   30    1:   10   31:   40
          18       1:   10   31:   40   21:   30
          19      21:   30   11:   20   11:   20
          20       1:   10   31:   40    1:   10
          21      21:   30   11:   20   21:   30
          22      11:   20   31:   40   21:   30
          23      21:   30    1:   10   11:   20
          24      11:   20   31:   40    1:   10
          25      31:   40    1:   10   31:   40
          26       1:   10   21:   30   21:   30
          27      31:   40   11:   20   11:   20
          28       1:   10   21:   30    1:   10
          29      31:   40   11:   20   21:   30
          30      11:   20   21:   30   21:   30
          31      31:   40    1:   10   11:   20
          32      11:   20   21:   30    1:   10
          33       1:   10   11:   20   21:   30
          34       1:   10   31:   40   31:   40
          35       1:   10   11:   20    1:   10
          36      21:   30   21:   30   11:   20
          37      11:   20   11:   20   21:   30
          38      21:   30   21:   30   21:   30
          39      11:   20   11:   20    1:   10
          40       1:   10   31:   40   11:   20
          41       1:   10    1:   10   21:   30
          42      11:   20   31:   40   31:   40
          43       1:   10    1:   10    1:   10
          44      31:   40   21:   30   11:   20
          45      11:   20    1:   10   21:   30
          46      31:   40   21:   30   21:   30
          47      11:   20    1:   10    1:   10
          48      11:   20   31:   40   11:   20
          49       1:   10   11:   20   31:   40
          50       1:   10   21:   30   31:   40
          51       1:   10   11:   20   11:   20
          52      21:   30   31:   40   11:   20
          53      11:   20   11:   20   31:   40
          54      21:   30   31:   40   21:   30
          55      11:   20   11:   20   11:   20
          56       1:   10   21:   30   11:   20
          57       1:   10    1:   10   31:   40
          58      11:   20   21:   30   31:   40
          59       1:   10    1:   10   11:   20
          60      31:   40   31:   40   11:   20
          61      11:   20    1:   10   31:   40
          62      31:   40   31:   40   21:   30
          63      11:   20    1:   10   11:   20
          64      11:   20   21:   30   11:   20
Setting up quadratic distribution...
ExtMesh (bp) on 0 =    98 x    99 x    98 =      950796
PhiOnMesh: Number of (b)points on node 0 =                 1100
PhiOnMesh: nlist on node 0 =               866383

stepf: Fermi-Dirac step function

siesta: Program's energy decomposition (eV):
siesta: Ebs     =     -4529.853161
siesta: Eions   =     26107.343333
siesta: Ena     =      5853.795051
siesta: Ekin    =     10461.560592
siesta: Enl     =     -1536.356393
siesta: DEna    =        -0.000008
siesta: DUscf   =         0.000000
siesta: DUext   =         0.000000
siesta: Exc     =     -3633.754362
siesta: eta*DQ  =         0.000000
siesta: Emadel  =         0.000000
siesta: Emeta   =         0.000000
siesta: Emolmec =         0.000000
siesta: Ekinion =         0.000000
siesta: Eharris =    -15105.127527
siesta: Etot    =    -14962.098453
siesta: FreeEng =    -14962.098453

   scf: iscf   Eharris(eV)      E_KS(eV)   FreeEng(eV)    dDmax  Ef(eV)
   scf:    1   -15105.1275   -14962.0985   -14962.0985  1.55358 -9.2189
timer: Routine,Calls,Time,% =    IterSCF     1      39.499  48.04
             Section          Calls    Walltime % sect.
 IterSCF                          1      39.907  100.00
  setup_H                         1      21.382   53.58
  compute_dm                      1      18.468   46.28
  MPI_ALLREDUCE                   3       0.035    0.09
  MIXER                           1       0.010    0.03
   scf:    2   -15181.2831   -14988.5222   -14988.5222  6.02474 -2.6116
   scf:    3   -15060.2091   -14997.9819   -14997.9819  0.69462 -7.0638
   scf:    4   -15058.8946   -15020.9721   -15020.9721  0.52327 -6.7144
   scf:    5   -15058.7705   -15062.2808   -15062.2808  0.48518 -4.0397
   scf:    6   -15058.7563   -15059.2151   -15059.2151  0.30647 -6.6564
   scf:    7   -15058.7597   -15059.7628   -15059.7628  0.08396 -6.6323
   scf:    8   -15058.7543   -15060.2999   -15060.2999  0.03466 -6.6104
   scf:    9   -15058.7544   -15060.1178   -15060.1178  0.01806 -6.6101
   scf:   10   -15058.7542   -15059.5691   -15059.5691  0.01380 -6.6151
   scf:   11   -15058.7542   -15059.0763   -15059.0763  0.00754 -6.6160
   scf:   12   -15058.7541   -15058.8729   -15058.8729  0.00424 -6.6155
   scf:   13   -15058.7541   -15058.8039   -15058.8039  0.00157 -6.6155
   scf:   14   -15058.7541   -15058.7884   -15058.7884  0.00073 -6.6157
   scf:   15   -15058.7541   -15058.7843   -15058.7843  0.00045 -6.6158
   scf:   16   -15058.7541   -15058.7760   -15058.7760  0.00034 -6.6158
   scf:   17   -15058.7541   -15058.7628   -15058.7628  0.00016 -6.6157
   scf:   18   -15058.7541   -15058.7577   -15058.7577  0.00009 -6.6158

SCF Convergence by dMax criterion
max |DM_out - DM_in|:     0.00008697
SCF cycle converged after   18 iterations

Using DM_out to compute the final energy and forces

siesta: E_KS(eV) =           -15058.7541

siesta: E_KS - E_eggbox =    -15058.7541

siesta: Atomic forces (eV/Ang):
----------------------------------------
   Tot    0.074784    0.062854   -0.035388
----------------------------------------
   Max    1.680224
   Res    0.642735    sqrt( Sum f_i^2 / 3N )
----------------------------------------
   Max    1.680224    constrained

Stress-tensor-Voigt (kbar):      -39.09      -39.83      -38.84        1.14       -0.07       -3.02
(Free)E + p*V (eV/cell)   -15035.2957
Target enthalpy (eV/cell)   -15058.7541

siesta: Program's energy decomposition (eV):
siesta: Ebs     =     -3795.407592
siesta: Eions   =     26107.343333
siesta: Ena     =      5853.795051
siesta: Ekin    =     11263.757226
siesta: Enl     =     -1953.319329
siesta: DEna    =      -357.830606
siesta: DUscf   =        34.323996
siesta: DUext   =         0.000000
siesta: Exc     =     -3792.137137
siesta: eta*DQ  =         0.000000
siesta: Emadel  =         0.000000
siesta: Emeta   =         0.000000
siesta: Emolmec =         0.000000
siesta: Ekinion =         0.000000
siesta: Eharris =    -15058.754133
siesta: Etot    =    -15058.754133
siesta: FreeEng =    -15058.754133

siesta: Final energy (eV):
siesta:  Band Struct. =   -3795.407592
siesta:       Kinetic =   11263.757226
siesta:       Hartree =    7290.948918
siesta:    Ext. field =       0.000000
siesta:   Exch.-corr. =   -3792.137137
siesta:  Ion-electron =  -24809.120678
siesta:       Ion-ion =   -5012.202462
siesta:       Ekinion =       0.000000
siesta:         Total =  -15058.754133

siesta: Atomic forces (eV/Ang):
siesta:      1    0.667040    0.204798   -0.062599
siesta:      2   -0.320116   -0.287067    0.737672
siesta:      3   -0.788711   -0.180514   -0.470685
siesta:      4    0.583001    0.911610    0.118407
siesta:      5   -0.719469    0.297792   -0.575072
siesta:      6    0.052415   -1.133754    0.411389
siesta:      7   -0.513404    0.286059    0.504967
siesta:      8   -0.066017   -0.158226   -0.570103
siesta:      9    0.724825   -0.235298    0.071922
siesta:     10    1.407111    0.226727   -0.538715
siesta:     11    0.008732    0.078485   -0.622927
siesta:     12   -1.429927   -0.175765    1.087221
siesta:     13    0.863097    0.463553   -0.287427
siesta:     14   -1.178633    0.433959   -0.227036
siesta:     15   -0.126887   -0.593329    0.620326
siesta:     16    0.665422   -1.167069   -0.088620
siesta:     17    0.262317    0.134353   -0.432075
siesta:     18   -0.390504    1.004279    0.551549
siesta:     19    0.522907    0.153966   -0.431183
siesta:     20   -0.797925   -0.310439   -0.037864
siesta:     21   -0.201895    0.238717    0.701571
siesta:     22    0.106275    1.153441    0.131639
siesta:     23   -0.458740    0.094931   -0.321475
siesta:     24    0.205434   -1.548274   -0.156766
siesta:     25   -0.180897    1.479678    0.465141
siesta:     26    0.123256   -1.454389    0.561994
siesta:     27   -0.391058    0.091826   -0.826314
siesta:     28   -0.358036   -0.102990   -1.126553
siesta:     29    0.766878   -0.126378    0.044153
siesta:     30   -0.325133    0.487138    0.648515
siesta:     31    0.585218    0.286754   -0.382820
siesta:     32    0.175933   -0.066793   -0.537934
siesta:     33   -0.946306   -0.186247    0.777094
siesta:     34    0.474826   -0.792129   -0.645311
siesta:     35   -0.143935    0.726399   -0.353830
siesta:     36   -0.336796    0.079033    1.320934
siesta:     37    1.017867   -0.222086   -0.509920
siesta:     38   -0.835540    0.094040    0.797259
siesta:     39   -0.590863   -0.033986   -0.201559
siesta:     40   -0.811129    0.252602    0.191024
siesta:     41    0.256130   -0.312678    0.102407
siesta:     42    0.558093   -0.060705   -0.112416
siesta:     43    0.767526   -0.176239    0.235130
siesta:     44   -0.581595   -0.176746    0.607837
siesta:     45   -0.305976    0.748707   -0.831358
siesta:     46    0.822136    0.632688   -0.684364
siesta:     47   -0.745659   -0.136508    0.839270
siesta:     48   -0.379077   -0.482434   -0.536517
siesta:     49   -0.181002   -1.604178   -0.967890
siesta:     50    0.954996    1.530757    0.950779
siesta:     51   -0.744792    0.071620    0.178742
siesta:     52    0.023147   -0.206367   -1.054748
siesta:     53   -0.220345   -0.594934    0.321860
siesta:     54    0.276321    0.418873    0.349401
siesta:     55    0.532883    0.074717   -1.191982
siesta:     56    0.295349   -0.327119    1.395611
siesta:     57   -0.656600    0.464342   -0.019368
siesta:     58    1.095443    0.475790   -0.668109
siesta:     59    0.140792    0.282841    0.820130
siesta:     60   -0.751175   -0.620792   -0.313838
siesta:     61    0.278781   -0.265253    0.134827
siesta:     62   -0.426960    0.497199   -0.082647
siesta:     63    0.065727   -0.303881    0.119344
siesta:     64   -0.856712   -0.401479   -0.986396
siesta:     65    0.779980   -0.179008    1.303549
siesta:     66    0.163102    0.512662   -0.268275
siesta:     67   -0.156973    0.854907    0.520367
siesta:     68    0.006795   -0.796513   -0.303001
siesta:     69    0.230370    0.006123   -0.172103
siesta:     70   -1.096250    0.691373   -0.131975
siesta:     71    0.989083   -0.305712    0.586496
siesta:     72    0.224333   -0.583916   -0.800559
siesta:     73    0.307227   -0.787108   -0.985772
siesta:     74   -0.697255    0.031441    0.097188
siesta:     75    0.575574    0.667188    0.425018
siesta:     76    0.475537    0.594201   -0.769665
siesta:     77    1.285115   -0.450157    0.998408
siesta:     78   -1.146743    0.191927   -0.398378
siesta:     79    1.680224   -0.347054   -0.389546
siesta:     80    0.156831    0.393199    1.077816
siesta:     81   -1.526781   -0.132458   -0.245656
siesta:     82    1.025398    0.674901    0.601957
siesta:     83   -0.275782   -0.834606    0.377637
siesta:     84   -0.623210    0.265625   -0.627659
siesta:     85    0.180870    0.026491   -1.039916
siesta:     86    0.400574   -0.554368    0.376810
siesta:     87   -0.523996    0.421574    0.696599
siesta:     88    1.506309    0.309908   -0.877279
siesta:     89   -0.099602   -0.516957    1.041133
siesta:     90   -1.405210    0.219757   -0.166673
siesta:     91    1.550981   -0.668514    0.544253
siesta:     92   -0.798369    1.374097    0.241483
siesta:     93   -0.747264   -0.880884   -0.567540
siesta:     94    0.487038    0.588744    0.409695
siesta:     95   -0.709233   -0.330786   -0.627259
siesta:     96    0.338045   -0.326849    0.095772
siesta: ----------------------------------------
siesta:    Tot    0.074784    0.062854   -0.035388

siesta: Stress tensor (static) (eV/Ang**3):
siesta:    -0.024400    0.000709   -0.001885
siesta:     0.000709   -0.024857   -0.000043
siesta:    -0.001885   -0.000043   -0.024239

siesta: Cell volume =        957.533163 Ang**3

siesta: Pressure (static):
siesta:                Solid            Molecule  Units
siesta:           0.00026682          0.00000283  Ry/Bohr**3
siesta:           0.02449885          0.00025960  eV/Ang**3
siesta:          39.25190792          0.41592990  kBar
(Free)E+ p_basis*V_orbitals  =      -14783.442724
(Free)Eharris+ p_basis*V_orbitals  =      -14783.442724

             Section          Calls    Walltime       %
 global_section                   1    1683.800  100.00
  siesta                          1    1683.027   99.95
   Setup                          1       0.390    0.02
    MPI_BCAST                   261       0.014    0.00
    MPI_COMM_RANK                 1       0.000    0.00
    bands                         1       0.000    0.00
    writewave                     1       0.000    0.00
    KSV_init                      1       0.000    0.00
   IterGeom                       1    1682.512   99.92
    state_init                    1      10.244    0.61
     hsparse                      1       0.283    0.02
     MPI_ALLREDUCE                2       0.676    0.04
     overlap                      1       9.262    0.55
    Setup_H0                      1      32.286    1.92
     naefs                        1       0.021    0.00
     MolMec                       1       0.000    0.00
     kinefsm                      1       9.052    0.54
     nlefsm                       1      16.953    1.01
     DHSCF_Init                   1       6.248    0.37
      DHSCF1                      1       0.082    0.00
       INITMESH                   1       0.002    0.00
      DHSCF2                      1       6.166    0.37
       REMESH                     1       0.972    0.06
        INITMESH                  2       0.599    0.04
         SPLOAD                   2       0.591    0.04
          MPI_RECV              278       0.574    0.03
          MPI_BCAST             126       0.017    0.00
          MPI_SEND                6       0.000    0.00
       REORD                      2       0.000    0.00
       MPI_RECV                 195       1.326    0.08
       MPI_SEND                 319       1.219    0.07
       PHION                      1       2.212    0.13
       MPI_GATHER                 1       0.074    0.00
       COMM_BSC                   1       0.064    0.00
        MPI_SEND                  6       0.000    0.00
        MPI_RECV                  4       0.064    0.00
       POISON                     1       0.091    0.01
        fft                       2       0.090    0.01
         MPI_COMM_SPLIT           2       0.010    0.00
         MPI_COMM_RANK            2       0.000    0.00
         MPI_COMM_SIZE            2       0.000    0.00
         MPI_IRECV               56       0.000    0.00
         MPI_ISEND               56       0.001    0.00
         MPI_WAIT               112       0.077    0.00
    IterSCF                      18    1598.311   94.92
     setup_H                     18     441.424   26.22
      MPI_ALLREDUCE              36       0.380    0.02
      DHSCF                      18     441.030   26.19
       DHSCF3                    18     441.029   26.19
        rhoofd                   18     209.784   12.46
         MPI_SEND              1134      40.763    2.42
         MPI_RECV              1134      49.462    2.94
        COMM_BSC                 36      34.223    2.03
         MPI_SEND               180       0.002    0.00
         MPI_RECV               180      34.220    2.03
        POISON                   18      20.005    1.19
         fft                     36      20.001    1.19
          MPI_IRECV            1008       0.001    0.00
          MPI_ISEND            1008       0.008    0.00
          MPI_WAIT             2016      19.978    1.19
        MPI_ALLGATHER            76       0.321    0.02
        MPI_ALLREDUCE            33       2.082    0.12
        MPI_SEND                458       0.002    0.00
        MPI_RECV                458       0.894    0.05
        vmat                     18     173.007   10.27
         MPI_RECV              1134      62.602    3.72
         MPI_SEND              1134      50.287    2.99
     compute_dm                  18    1155.483   68.62
      diagon                     18    1155.254   68.61
       r-eigvec                  18    1115.028   66.22
        r-buildHS                18       0.041    0.00
        rdiag                    18    1114.987   66.22
         MPI_BCAST                1       0.000    0.00
         rdiag1                  18      21.415    1.27
         rdiag2                  18     192.272   11.42
         rdiag3                  18     877.088   52.09
         rdiag4                  18      18.322    1.09
       r-buildD                  18      40.217    2.39
        MPI_ALLGATHER            18       1.455    0.09
        MPI_BCAST              1152      38.309    2.28
      MPI_ALLREDUCE              18       0.166    0.01
     MPI_ALLREDUCE               54       0.585    0.03
     MIXER                       17       0.789    0.05
      MPI_ALLREDUCE              64       0.693    0.04
    PostSCF                       1      41.642    2.47
     naefs                        1       0.022    0.00
     kinefsm                      1       0.240    0.01
     MPI_ALLREDUCE                4       0.490    0.03
     nlefsm                       1       3.911    0.23
     DHSCF                        1      36.727    2.18
      DHSCF3                      1      21.368    1.27
       rhoofd                     1      11.760    0.70
        MPI_SEND                 63       2.220    0.13
        MPI_RECV                 63       2.793    0.17
       COMM_BSC                   2       0.645    0.04
        MPI_SEND                 10       0.000    0.00
        MPI_RECV                 10       0.645    0.04
       POISON                     1       0.072    0.00
        fft                       2       0.071    0.00
         MPI_IRECV               56       0.000    0.00
         MPI_ISEND               56       0.000    0.00
         MPI_WAIT               112       0.070    0.00
       MPI_ALLGATHER              1       0.000    0.00
       MPI_SEND                  18       0.000    0.00
       MPI_RECV                  18       0.017    0.00
       vmat                       1       8.756    0.52
        MPI_RECV                 63       2.947    0.18
        MPI_SEND                 63       2.320    0.14
       MPI_ALLREDUCE              1       0.084    0.01
      DHSCF4                      1      15.359    0.91
       REORD                     10       0.000    0.00
       COMM_BSC                   2       0.016    0.00
        MPI_RECV                 12       0.015    0.00
        MPI_SEND                  8       0.000    0.00
       dfscf                      1      15.245    0.91
        MPI_SEND                 63       2.225    0.13
        MPI_RECV                 63       2.770    0.16
     overfsm                      1       0.239    0.01
     MolMec                       1       0.000    0.00
    state_analysis                1       0.028    0.00
    siesta_move                   1       0.000    0.00
   optical                        1       0.000    0.00
   MPI_BCAST                      3       0.000    0.00
   MPI_ALLGATHER                  2       0.023    0.00
   MPI_BARRIER                    2       0.068    0.00
  MPI_ALLGATHER                  65       0.773    0.05
  MPI_BCAST                       2       0.000    0.00
  MPI_RECV                        4       0.000    0.00
>> End of run:  23-SEP-2016  22:34:06
************************************************************************************************************************
***             WIDEN YOUR WINDOW TO 120 CHARACTERS.  Use 'enscript -r -fCourier9' to print this document            ***
************************************************************************************************************************

---------------------------------------------- PETSc Performance Summary: ----------------------------------------------

/home/keceli/lib/siesta-qetsc/Obj/siesta on a arch-gccopt named b444 with 64 processors, by keceli Fri Sep 23 22:34:06 2016
Using Petsc Development GIT revision: v3.7.3-1320-g04d0fa7  GIT Date: 2016-09-01 18:08:27 -0500

                         Max       Max/Min        Avg      Total 
Time (sec):           1.684e+03      1.00002   1.684e+03
Objects:              1.000e+00      1.00000   1.000e+00
Flops:                0.000e+00      0.00000   0.000e+00  0.000e+00
Flops/sec:            0.000e+00      0.00000   0.000e+00  0.000e+00
MPI Messages:         0.000e+00      0.00000   0.000e+00  0.000e+00
MPI Message Lengths:  0.000e+00      0.00000   0.000e+00  0.000e+00
MPI Reductions:       1.000e+00      1.00000

Flop counting convention: 1 flop = 1 real number operation of type (multiply/divide/add/subtract)
                            e.g., VecAXPY() for real vectors of length N --> 2N flops
                            and VecAXPY() for complex vectors of length N --> 8N flops

Summary of Stages:   ----- Time ------  ----- Flops -----  --- Messages ---  -- Message Lengths --  -- Reductions --
                        Avg     %Total     Avg     %Total   counts   %Total     Avg         %Total   counts   %Total 
 0:      Main Stage: 3.1877e-02   0.0%  0.0000e+00   0.0%  0.000e+00   0.0%  0.000e+00        0.0%  0.000e+00   0.0% 
 1:     siesta_init: 9.5596e-01   0.1%  0.0000e+00   0.0%  0.000e+00   0.0%  0.000e+00        0.0%  0.000e+00   0.0% 
 2:   siesta_forces: 6.3536e+01   3.8%  0.0000e+00   0.0%  0.000e+00   0.0%  0.000e+00        0.0%  0.000e+00   0.0% 
 3:    siesta_solve: 1.1552e+03  68.6%  0.0000e+00   0.0%  0.000e+00   0.0%  0.000e+00        0.0%  0.000e+00   0.0% 
10:     siesta_misc: 4.6340e+02  27.5%  0.0000e+00   0.0%  0.000e+00   0.0%  0.000e+00        0.0%  0.000e+00   0.0% 
11:     siesta_move: 2.3674e-03   0.0%  0.0000e+00   0.0%  0.000e+00   0.0%  0.000e+00        0.0%  0.000e+00   0.0% 
12: siesta_analysis: 1.3503e-02   0.0%  0.0000e+00   0.0%  0.000e+00   0.0%  0.000e+00        0.0%  0.000e+00   0.0% 
13:      siesta_end: 9.8030e-01   0.1%  0.0000e+00   0.0%  0.000e+00   0.0%  0.000e+00        0.0%  0.000e+00   0.0% 

------------------------------------------------------------------------------------------------------------------------
See the 'Profiling' chapter of the users' manual for details on interpreting output.
Phase summary info:
   Count: number of times phase was executed
   Time and Flops: Max - maximum over all processors
                   Ratio - ratio of maximum to minimum over all processors
   Mess: number of messages sent
   Avg. len: average message length (bytes)
   Reduct: number of global reductions
   Global: entire computation
   Stage: stages of a computation. Set stages with PetscLogStagePush() and PetscLogStagePop().
      %T - percent time in this phase         %F - percent flops in this phase
      %M - percent messages in this phase     %L - percent message lengths in this phase
      %R - percent reductions in this phase
   Total Mflop/s: 10e-6 * (sum of flops over all processors)/(max time over all processors)
------------------------------------------------------------------------------------------------------------------------
Event                Count      Time (sec)     Flops                             --- Global ---  --- Stage ---   Total
                   Max Ratio  Max     Ratio   Max  Ratio  Mess   Avg len Reduct  %T %F %M %L %R  %T %F %M %L %R Mflop/s
------------------------------------------------------------------------------------------------------------------------

--- Event Stage 0: Main Stage


--- Event Stage 1: siesta_init


--- Event Stage 2: siesta_forces


--- Event Stage 3: siesta_solve


--- Event Stage 4: Unknown


--- Event Stage 5: Unknown


--- Event Stage 6: Unknown


--- Event Stage 7: Unknown


--- Event Stage 8: Unknown


--- Event Stage 9: Unknown


--- Event Stage 10: siesta_misc


--- Event Stage 11: siesta_move


--- Event Stage 12: siesta_analysis


--- Event Stage 13: siesta_end

------------------------------------------------------------------------------------------------------------------------

Memory usage is given in bytes:

Object Type          Creations   Destructions     Memory  Descendants' Mem.
Reports information only for process 0.

--- Event Stage 0: Main Stage


--- Event Stage 1: siesta_init


--- Event Stage 2: siesta_forces


--- Event Stage 3: siesta_solve


--- Event Stage 4: Unknown


--- Event Stage 5: Unknown


--- Event Stage 6: Unknown


--- Event Stage 7: Unknown


--- Event Stage 8: Unknown


--- Event Stage 9: Unknown


--- Event Stage 10: siesta_misc


--- Event Stage 11: siesta_move


--- Event Stage 12: siesta_analysis


--- Event Stage 13: siesta_end

              Viewer     1              0            0     0.
========================================================================================================================
Average time to get PetscTime(): 0.
Average time for MPI_Barrier(): 0.0153978
Average time for zero size MPI_Send(): 0.000152953
#PETSc Option Table entries:
-bintype 3
-eps_interval -2.3,0.
-eps_krylovschur_detect_zeros 0
-eps_krylovschur_nev 120
-eps_krylovschur_partitions 64
-ioptinertia 1
-ioptleft 2
-isglobal 0
-log_view
-mat_mumps_icntl_28 1
-roptbuffer 0.1
-roptdiff 0.01
-roptleft -2.3
-roptright 0.
-st_pc_factor_mat_solver_package mkl_pardiso
-writeeigs 1
#End of PETSc Option Table entries
Compiled without FORTRAN kernels
Compiled with full precision matrices (default)
sizeof(short) 2 sizeof(int) 4 sizeof(long) 8 sizeof(void*) 8 sizeof(PetscScalar) 8 sizeof(PetscInt) 4
Configure options: --download-metis=1 --download-mumps=1 --download-parmetis=1 --download-ptscotch=1 --download-scalapack=1 --with-blas-lapack-dir=/soft/mkl/11.1.0.080/mkl/ --with-debugging=0 --with-mkl_pardiso-dir=/soft/mkl/11.1.0.080/mkl/ --with-shared-libraries=0 -COPTFLAGS="-O3 -g" -CXXOPTFLAGS="-O3 -g" -FOPTFLAGS="-O3 -g" CC=mpicc CXX=mpicxx FC=mpif90 PETSC_ARCH=arch-gccopt
-----------------------------------------
Libraries compiled on Fri Sep 23 14:58:29 2016 on blogin3 
Machine characteristics: Linux-2.6.32-642.1.1.el6.x86_64-x86_64-with-centos-6.7-Final
Using PETSc directory: /home/keceli/lib/petsc
Using PETSc arch: arch-gccopt
-----------------------------------------

Using C compiler: mpicc   -Wall -Wwrite-strings -Wno-strict-aliasing -Wno-unknown-pragmas -fvisibility=hidden -O3 -g  ${COPTFLAGS} ${CFLAGS}
Using Fortran compiler: mpif90  -Wall -ffree-line-length-0 -Wno-unused-dummy-argument -O3 -g   ${FOPTFLAGS} ${FFLAGS} 
-----------------------------------------

Using include paths: -I/home/keceli/lib/petsc/arch-gccopt/include -I/home/keceli/lib/petsc/include -I/home/keceli/lib/petsc/include -I/home/keceli/lib/petsc/arch-gccopt/include -I/soft/mkl/11.1.0.080/mkl/include -I/blues/gpfs/home/software/spack/opt/spack/linux-x86_64/gcc-5.3.0/mpich-3.2-wraqufukmp7yzyl6a644pnmda7wkg7w7/include
-----------------------------------------

Using C linker: mpicc
Using Fortran linker: mpif90
Using libraries: -Wl,-rpath,/home/keceli/lib/petsc/arch-gccopt/lib -L/home/keceli/lib/petsc/arch-gccopt/lib -lpetsc -Wl,-rpath,/home/keceli/lib/petsc/arch-gccopt/lib -L/home/keceli/lib/petsc/arch-gccopt/lib -lcmumps -ldmumps -lsmumps -lzmumps -lmumps_common -lpord -lscalapack -Wl,-rpath,/soft/mkl/11.1.0.080/mkl/lib/intel64 -L/soft/mkl/11.1.0.080/mkl/lib/intel64 -lmkl_intel_lp64 -lmkl_core -lmkl_intel_thread -liomp5 -ldl -lpthread -lm -lparmetis -lmetis -lptesmumps -lptscotch -lptscotcherr -lscotch -lscotcherr -lX11 -lhwloc -lpthread -lssl -lcrypto -lm -L/blues/gpfs/home/software/spack/opt/spack/linux-x86_64/gcc-4.4.7/gcc-5.3.0-fygfl7rvyuiteto27dlhmilp5cstw2o2/lib64 -L/blues/gpfs/home/software/spack/opt/spack/linux-x86_64/gcc-5.3.0/mpich-3.2-wraqufukmp7yzyl6a644pnmda7wkg7w7/lib -L/blues/gpfs/home/software/spack/opt/spack/linux-x86_64/gcc-4.4.7/gcc-5.3.0-fygfl7rvyuiteto27dlhmilp5cstw2o2/lib64/gcc/x86_64-unknown-linux-gnu/5.3.0 -L/soft/intel/13.1.3/lib/intel64 -L/soft/intel/13.1.3/ipp/lib/intel64 -L/soft/intel/13.1.3/tbb/lib/intel64/gcc4.4 -L/soft/lcrc/lib -lmpifort -lgfortran -lm -Wl,-rpath,/blues/gpfs/home/software/spack/opt/spack/linux-x86_64/gcc-4.4.7/gcc-5.3.0-fygfl7rvyuiteto27dlhmilp5cstw2o2/lib:/blues/gpfs/home/software/spack/opt/spack/linux-x86_64/gcc-4.4.7/gcc-5.3.0-fygfl7rvyuiteto27dlhmilp5cstw2o2/lib64 -Wl,-rpath,/blues/gpfs/home/software/spack/opt/spack/linux-x86_64/gcc-5.3.0/mpich-3.2-wraqufukmp7yzyl6a644pnmda7wkg7w7/lib -lgfortran -lm -lquadmath -lm -lmpicxx -lstdc++ -lrt -lm -lpthread -lz -Wl,-rpath,/blues/gpfs/home/software/spack/opt/spack/linux-x86_64/gcc-4.4.7/gcc-5.3.0-fygfl7rvyuiteto27dlhmilp5cstw2o2/lib:/blues/gpfs/home/software/spack/opt/spack/linux-x86_64/gcc-4.4.7/gcc-5.3.0-fygfl7rvyuiteto27dlhmilp5cstw2o2/lib64 -L/blues/gpfs/home/software/spack/opt/spack/linux-x86_64/gcc-5.3.0/mpich-3.2-wraqufukmp7yzyl6a644pnmda7wkg7w7/lib -L/blues/gpfs/home/software/spack/opt/spack/linux-x86_64/gcc-4.4.7/gcc-5.3.0-fygfl7rvyuiteto27dlhmilp5cstw2o2/lib64/gcc/x86_64-unknown-linux-gnu/5.3.0 -L/blues/gpfs/home/software/spack/opt/spack/linux-x86_64/gcc-4.4.7/gcc-5.3.0-fygfl7rvyuiteto27dlhmilp5cstw2o2/lib64 -L/soft/intel/13.1.3/lib/intel64 -L/soft/intel/13.1.3/ipp/lib/intel64 -L/soft/intel/13.1.3/tbb/lib/intel64/gcc4.4 -L/soft/lcrc/lib -L/blues/gpfs/home/software/spack/opt/spack/linux-x86_64/gcc-4.4.7/gcc-5.3.0-fygfl7rvyuiteto27dlhmilp5cstw2o2/lib64 -ldl -Wl,-rpath,/blues/gpfs/home/software/spack/opt/spack/linux-x86_64/gcc-5.3.0/mpich-3.2-wraqufukmp7yzyl6a644pnmda7wkg7w7/lib -lmpi -lgcc_s -ldl 
-----------------------------------------

