s.writesiestasub: Submission time = 45s45m18h
s.writesiestasub: Job name = sw128_s64_n16_c64_theta
s.writesiestasub: Number of nodes = 16
s.writesiestasub: Number of cores = 1024
s.writesiestasub: Number of cores/node = 64
s.writesiestasub: Number of slices = 64
s.writesiestasub: Mapping = ABCDET
45s45m18h
#QETSc options
-ioptbin 7
-ioptdensity 0
-ioptinertia 1
-ioptleft 2
-ioptwrite 1

#PETSc options
-mat_type mpisbaij
-log_view
#-mat_view
#-memory_view
#-mat_mumps_icntl_13 1 #turn off scaLAPACK for matrix inertia
#-mat_mumps_icntl_24 1 #null pivot row detection for matrix inertia
-mat_mumps_icntl_23 0
#-mat_mumps_icntl_28 1 # serial analysis
#-mat_mumps_icntl_28 2 #parallel analysis
#-mat_mumps_icntl_29 1 #ptscotch
#-mat_mumps_icntl_29 2 #parmetis
-mat_mumps_icntl_7 5 #metis
#-malloc_info 
#-mat_view ::ascii_info 
#-mat_getrow_uppertriangular 1
#-st_type sinvert 
#-st_ksp_type preonly 
#-st_pc_type cholesky 
#-st_pc_factor_mat_solver_package mumps 

#SLEPc options

#-eps_krylovschur_partitions 1  
-eps_interval -2.3,0.
#-eps_tol  1.e-8
-eps_krylovschur_detect_zeros 0
#-eps_purify 1
SystemName liquid_D2O_128
SystemLabel D2O_128

#UseTreeTimer .true.
DM.MixingWeight 0.3
DM.NumberPulay 3
NumberOfEigenStates 512
#SolutionMethod  qetsc #slepc0 for the older method
#SolutionMethod diagon
BlockSize 23
WriteDM .false.
WriteDM.NetCDF .false.
WriteDMHS.NetCDF .false.
LongOutput .false.

#MaxSCFIterations 2
##################################################
# Do not change below this line                  #
##################################################

%block SuperCell
1 0 0
0 1 0
0 0 1
%endblock SuperCell

NumberOfAtoms 384
NumberOfSpecies 2

xc.functional GGA
xc.authors PBE 
MeshCutoff 150.0 Ry

%block ChemicalSpeciesLabel
  1   8  O
  2   1  H  
%endblock ChemicalSpeciesLabel

#%block AtomicMass
#  2   2.0
#%endblock AtomicMass

%Block PAO.Basis
O    3     -0.24233
n=2   0   2   E    23.36061     3.39721
     4.50769     2.64066
     1.00000     1.00000
n=2   1   2   E     2.78334     5.14253
     6.14996     2.59356
     1.00000     1.00000
n=3   2   1   E    63.98188     0.16104
     3.54403
     1.00000
H    2      0.46527
n=1   0   2   E    99.93138     2.59932
     4.20357     1.84463
     1.00000     1.00000
n=2   1   1   E    24.56504     2.20231
     3.52816
     1.00000
%EndBlock PAO.Basis

LatticeConstant 15.646046088993955 Ang
%block LatticeVectors   
  1.0  0.0  0.0
  0.0  1.0  0.0
  0.0  0.0  1.0
%endblock LatticeVectors   

AtomicCoordinatesFormat NotScaledCartesianAng
%block AtomicCoordinatesAndAtomicSpecies < coord128.data

Siesta Version: siesta-trunk-492
Architecture  : x86_64-unknown-linux-gnu--unknown
Compiler flags: ftn -g -O3 -fp-model fast -xMIC-AVX512  -I/home/keceli/petsc/include -I/home//keceli/petsc/arch-theta-opt-cray/include -I/home/keceli/slepcfork/arch-theta-opt-cray/include -I/home/keceli/slepcfork/arch-theta-opt-cray/include -I/home/keceli/slepcfork/include
PP flags      : -DMPI -DFC_HAVE_FLUSH -DFC_HAVE_ABORT 
PARALLEL version

* Running on 1024 nodes in parallel
>> Start of run:   5-MAY-2017  19:34:01

                           ***********************       
                           *  WELCOME TO SIESTA  *       
                           ***********************       
WARNING: Siesta is reading its input from file INPUT_DEBUG

reinit: -----------------------------------------------------------------------
reinit: System Name: liquid_D2O_128
reinit: -----------------------------------------------------------------------
reinit: System Label: D2O_128                                                     
reinit: -----------------------------------------------------------------------

initatom: Reading input for the pseudopotentials and atomic orbitals ----------
Species number:   1 Atomic number:    8 Label: O
Species number:   2 Atomic number:    1 Label: H
 
Ground state valence configuration:   2s02  2p04
Reading pseudopotential information in formatted form from O.psf

Valence configuration for pseudopotential generation:
2s( 2.00) rc: 1.14
2p( 4.00) rc: 1.14
3d( 0.00) rc: 1.14
4f( 0.00) rc: 1.14
Ground state valence configuration:   1s01
Reading pseudopotential information in formatted form from H.psf

Valence configuration for pseudopotential generation:
1s( 0.60) rc: 1.25
2p( 0.00) rc: 1.25
3d( 0.00) rc: 1.25
4f( 0.00) rc: 1.25
For O, standard SIESTA heuristics set lmxkb to 3
 (one more than the basis l, including polarization orbitals).
Use PS.lmax or PS.KBprojectors blocks to override.
For H, standard SIESTA heuristics set lmxkb to 2
 (one more than the basis l, including polarization orbitals).
Use PS.lmax or PS.KBprojectors blocks to override.

<basis_specs>
===============================================================================
O                    Z=   8    Mass=  16.000        Charge=-0.24233    
Lmxo=2 Lmxkb= 3    BasisType=split      Semic=F
L=0  Nsemic=0  Cnfigmx=2
          n=1  nzeta=2  polorb=0
            splnorm:   0.15000    
               vcte:    23.361    
               rinn:    3.3972    
               qcoe:    0.0000    
               qyuk:    0.0000    
               qwid:   0.10000E-01
                rcs:    4.5077      2.6407    
            lambdas:    1.0000      1.0000    
L=1  Nsemic=0  Cnfigmx=2
          n=1  nzeta=2  polorb=0
            splnorm:   0.15000    
               vcte:    2.7833    
               rinn:    5.1425    
               qcoe:    0.0000    
               qyuk:    0.0000    
               qwid:   0.10000E-01
                rcs:    6.1500      2.5936    
            lambdas:    1.0000      1.0000    
L=2  Nsemic=0  Cnfigmx=3
          n=1  nzeta=1  polorb=0
            splnorm:   0.15000    
               vcte:    63.982    
               rinn:   0.16104    
               qcoe:    0.0000    
               qyuk:    0.0000    
               qwid:   0.10000E-01
                rcs:    3.5440    
            lambdas:    1.0000    
-------------------------------------------------------------------------------
L=0  Nkbl=1  erefs: 0.17977+309
L=1  Nkbl=1  erefs: 0.17977+309
L=2  Nkbl=1  erefs: 0.17977+309
L=3  Nkbl=1  erefs: 0.17977+309
===============================================================================
</basis_specs>

atom: Called for O                     (Z =   8)

read_vps: Pseudopotential generation method:
read_vps: ATM3      Troullier-Martins                       
Total valence charge:    6.00000

read_vps: Pseudopotential includes a core correction:
read_vps: Pseudo-core for xc-correction

xc_check: Exchange-correlation functional:
xc_check: GGA Perdew, Burke & Ernzerhof 1996
V l=0 = -2*Zval/r beyond r=  1.1278
V l=1 = -2*Zval/r beyond r=  1.1278
V l=2 = -2*Zval/r beyond r=  1.1278
V l=3 = -2*Zval/r beyond r=  1.1278
All V_l potentials equal beyond r=  1.1278
This should be close to max(r_c) in ps generation
All pots = -2*Zval/r beyond r=  1.1278

VLOCAL1: 99.0% of the norm of Vloc inside     34.126 Ry
VLOCAL1: 99.9% of the norm of Vloc inside     77.774 Ry
atom: Maximum radius for 4*pi*r*r*local-pseudopot. charge    1.37759
atom: Maximum radius for r*vlocal+2*Zval:    1.18566
GHOST: No ghost state for L =  0
GHOST: No ghost state for L =  1
GHOST: No ghost state for L =  2
GHOST: No ghost state for L =  3

KBgen: Kleinman-Bylander projectors: 
   l= 0   rc=  1.262145   el= -1.757696   Ekb=  9.253654   kbcos=  0.328369
   l= 1   rc=  1.262145   el= -0.664256   Ekb= -7.897175   kbcos= -0.393093
   l= 2   rc=  1.343567   el=  0.002031   Ekb= -1.922379   kbcos= -0.003517
   l= 3   rc=  1.394919   el=  0.003153   Ekb= -0.738278   kbcos= -0.000358

KBgen: Total number of  Kleinman-Bylander projectors:   16
atom: -------------------------------------------------------------------------

atom: SANKEY-TYPE ORBITALS:
atom: Selected multiple-zeta basis: split     

atom: basis set generated (by rescaling the valence charge)
atom: for an anion of charge  -0.2423

SPLIT: Orbitals with angular momentum L= 0

SPLIT: Basis orbitals for state 2s

   izeta = 1
                 lambda =    1.000000
                     rc =    4.574469
                 energy =   -1.754694
                kinetic =    1.490893
    potential(screened) =   -3.245588
       potential(ionic) =  -11.054474

   izeta = 2
                 rmatch =    2.639108
              splitnorm =    0.147036
                 energy =   -1.549986
                kinetic =    2.329570
    potential(screened) =   -3.879556
       potential(ionic) =  -12.328390

SPLIT: Orbitals with angular momentum L= 1

SPLIT: Basis orbitals for state 2p

   izeta = 1
                 lambda =    1.000000
                     rc =    6.174996
                 energy =   -0.657397
                kinetic =    4.283704
    potential(screened) =   -4.941101
       potential(ionic) =  -12.288569

   izeta = 2
                 rmatch =    2.639108
              splitnorm =    0.214885
                 energy =   -0.410839
                kinetic =    7.128014
    potential(screened) =   -7.538853
       potential(ionic) =  -16.113011

SPLIT: Orbitals with angular momentum L= 2

SPLIT: Basis orbitals for state 3d

   izeta = 1
                 lambda =    1.000000
                     rc =    3.562532
                 energy =    3.658838
                kinetic =    6.488135
    potential(screened) =   -2.829297
       potential(ionic) =  -10.001422
atom: Total number of Sankey-type orbitals: 13

atm_pop: Valence configuration (for local Pseudopot. screening):
 2s( 2.00)                                                            
 2p( 4.00)                                                            
 3d( 0.00)                                                            
Vna: chval, zval:    6.00000   6.00000

Vna:  Cut-off radius for the neutral-atom potential:   6.174996
comcore: Pseudo-core radius Rcore=  1.377587

atom: _________________________________________________________________________

<basis_specs>
===============================================================================
H                    Z=   1    Mass=  1.0100        Charge= 0.46527    
Lmxo=1 Lmxkb= 2    BasisType=split      Semic=F
L=0  Nsemic=0  Cnfigmx=1
          n=1  nzeta=2  polorb=0
            splnorm:   0.15000    
               vcte:    99.931    
               rinn:    2.5993    
               qcoe:    0.0000    
               qyuk:    0.0000    
               qwid:   0.10000E-01
                rcs:    4.2036      1.8446    
            lambdas:    1.0000      1.0000    
L=1  Nsemic=0  Cnfigmx=2
          n=1  nzeta=1  polorb=0
            splnorm:   0.15000    
               vcte:    24.565    
               rinn:    2.2023    
               qcoe:    0.0000    
               qyuk:    0.0000    
               qwid:   0.10000E-01
                rcs:    3.5282    
            lambdas:    1.0000    
-------------------------------------------------------------------------------
L=0  Nkbl=1  erefs: 0.17977+309
L=1  Nkbl=1  erefs: 0.17977+309
L=2  Nkbl=1  erefs: 0.17977+309
===============================================================================
</basis_specs>

atom: Called for H                     (Z =   1)

read_vps: Pseudopotential generation method:
read_vps: ATM 3.2.2 Troullier-Martins                       
Total valence charge:    0.60000

atom: Pseudopotential generated from an ionic configuration
atom: with net charge 0.40

xc_check: Exchange-correlation functional:
xc_check: GGA Perdew, Burke & Ernzerhof 1996
xc_check: WARNING: Pseudopotential generated with GGA revPBE functional
V l=0 = -2*Zval/r beyond r=  1.2343
V l=1 = -2*Zval/r beyond r=  1.2189
V l=2 = -2*Zval/r beyond r=  1.2189
All V_l potentials equal beyond r=  1.2343
This should be close to max(r_c) in ps generation
All pots = -2*Zval/r beyond r=  1.2343

VLOCAL1: 99.0% of the norm of Vloc inside     28.493 Ry
VLOCAL1: 99.9% of the norm of Vloc inside     64.935 Ry
atom: Maximum radius for 4*pi*r*r*local-pseudopot. charge    1.45251
atom: Maximum radius for r*vlocal+2*Zval:    1.21892
GHOST: No ghost state for L =  0
GHOST: No ghost state for L =  1
GHOST: No ghost state for L =  2

KBgen: Kleinman-Bylander projectors: 
   l= 0   rc=  1.364359   el= -0.835481   Ekb= -2.050473   kbcos= -0.374935
   l= 1   rc=  1.434438   el= -0.083696   Ekb= -0.439790   kbcos= -0.040392
   l= 2   rc=  1.470814   el= -0.018512   Ekb= -0.135383   kbcos= -0.004767

KBgen: Total number of  Kleinman-Bylander projectors:    9
atom: -------------------------------------------------------------------------

atom: SANKEY-TYPE ORBITALS:
atom: Selected multiple-zeta basis: split     

atom: basis set generated (by rescaling the valence charge)
atom: for a cation of charge   0.4653

SPLIT: Orbitals with angular momentum L= 0

SPLIT: Basis orbitals for state 1s

   izeta = 1
                 lambda =    1.000000
                     rc =    4.260636
                 energy =   -0.844786
                kinetic =    1.360018
    potential(screened) =   -2.204804
       potential(ionic) =   -2.290935

   izeta = 2
                 rmatch =    1.865767
              splitnorm =    0.575404
                 energy =    0.510436
                kinetic =    4.363202
    potential(screened) =   -3.852766
       potential(ionic) =   -3.849391

SPLIT: Orbitals with angular momentum L= 1

SPLIT: Basis orbitals for state 2p

   izeta = 1
                 lambda =    1.000000
                     rc =    3.576223
                 energy =    0.852340
                kinetic =    2.004908
    potential(screened) =   -1.152567
       potential(ionic) =   -1.298457
atom: Total number of Sankey-type orbitals:  5

atm_pop: Valence configuration (for local Pseudopot. screening):
 1s( 1.00)                                                            
 2p( 0.00)                                                            
Vna: chval, zval:    1.00000   1.00000

Vna:  Cut-off radius for the neutral-atom potential:   4.260636

atom: _________________________________________________________________________

prinput: Basis input ----------------------------------------------------------

PAO.BasisType split     

%block ChemicalSpeciesLabel
    1    8 O                       # Species index, atomic number, species label
    2    1 H                       # Species index, atomic number, species label
%endblock ChemicalSpeciesLabel

%block PAO.Basis                 # Define Basis set
O                     3  -0.242            # Label, l-shells, ionic net charge
 n=2   0   2                         # n, l, Nzeta 
   4.574      2.639   
   1.000      1.000   
 n=2   1   2                         # n, l, Nzeta 
   6.175      2.639   
   1.000      1.000   
 n=3   2   1                         # n, l, Nzeta 
   3.563   
   1.000   
H                     2   0.465            # Label, l-shells, ionic net charge
 n=1   0   2                         # n, l, Nzeta 
   4.261      1.866   
   1.000      1.000   
 n=2   1   1                         # n, l, Nzeta 
   3.576   
   1.000   
%endblock PAO.Basis

prinput: ----------------------------------------------------------------------

coor:   Atomic-coordinates input format  =     Cartesian coordinates
coor:                                          (in Angstroms)

siesta: Atomic coordinates (Bohr) and species
siesta:     26.49397   0.45353   4.66763  1        1
siesta:     26.96640   1.47399   3.25033  2        2
siesta:     25.77587   1.62517   5.85815  2        3
siesta:     20.33346  14.00288  21.97752  1        4
siesta:     21.22163  14.47531  20.46574  2        5
siesta:     18.59491  14.07847  21.50509  2        6
siesta:     11.07380   3.60938  13.00132  1        7
siesta:     11.41395   5.36682  12.83125  2        8
siesta:     11.58403   2.89128  11.43285  2        9
siesta:     14.09736  13.00132  25.01998  1       10
siesta:     14.15405  13.00132  26.83412  2       11
siesta:     13.53044  11.33836  24.56645  2       12
siesta:     17.17762   8.63605  20.03110  1       13
siesta:     16.83747   9.24076  18.34925  2       14
siesta:     18.95396   8.86282  20.23897  2       15
siesta:     22.75231   1.79524   9.37305  1       16
siesta:     21.27832   2.30547   8.48487  2       17
siesta:     23.45151   3.32592  10.03445  2       18
siesta:     27.17427  25.60580  26.85302  1       19
siesta:     28.61046  25.54911  27.94906  2       20
siesta:     27.57112  24.43417  25.53021  2       21
siesta:     24.09402  25.03888   4.02512  1       22
siesta:     23.67828  24.96329   2.26767  2       23
siesta:     24.75542  26.70184   4.28968  2       24
siesta:     28.81833  16.93195   4.57314  1       25
siesta:     29.17738  18.65160   4.13850  2       26
siesta:     29.02620  16.00599   3.04246  2       27
siesta:      3.17474   7.14317  26.24831  1       28
siesta:      1.79524   7.97465  25.45462  2       29
siesta:      4.62983   8.12583  25.81367  2       30
siesta:      1.56847   2.39995  27.68450  1       31
siesta:      0.15118   1.90862  26.68294  2       32
siesta:      2.22988   3.85504  26.85302  2       33
siesta:     21.97752   5.87705  29.00731  1       34
siesta:     21.33502   4.25189  28.51598  2       35
siesta:     21.18384   7.02978  27.87347  2       36
siesta:      2.81569  25.05778  28.47818  1       37
siesta:      3.53379  25.98374  29.85768  2       38
siesta:      3.38261  23.35702  28.74275  2       39
siesta:      2.05980   4.45976  19.10514  1       40
siesta:      0.77479   4.66763  17.83902  2       41
siesta:      3.36371   5.61249  18.61381  2       42
siesta:      9.12738  25.19006  29.38525  1       43
siesta:     10.37460  24.79322  28.13803  2       44
siesta:      7.54001  24.81211  28.59157  2       45
siesta:     20.99487   3.64717  16.91306  1       46
siesta:     19.33191   3.02356  17.30990  2       47
siesta:     21.78855   3.83615  18.51932  2       48
siesta:      2.04091  15.04223  21.58068  1       49
siesta:      1.11494  13.51155  21.42950  2       50
siesta:      2.47554  15.13671  23.33813  2       51
siesta:     16.47842   9.58092   2.28657  1       52
siesta:     17.95241   9.54312   3.34482  2       53
siesta:     16.74298  10.97931   1.19053  2       54
siesta:     25.90816   8.05024   4.72432  1       55
siesta:     26.00264   7.02978   6.21720  2       56
siesta:     26.55066   6.99199   3.40151  2       57
siesta:     10.56357  15.04223  21.08935  1       58
siesta:     12.32102  14.72097  21.37281  2       59
siesta:      9.80768  13.41706  21.08935  2       60
siesta:      7.97465  10.88483  12.77455  1       61
siesta:      7.02978   9.93996  11.56513  2       62
siesta:      7.36993  10.33681  14.38082  2       63
siesta:      2.30547  13.43596   7.38883  1       64
siesta:      1.58737  14.41862   6.04713  2       65
siesta:      2.83459  14.64538   8.61715  2       66
siesta:     12.66117   3.38261   7.67229  1       67
siesta:     12.30212   2.05980   6.50066  2       68
siesta:     12.49109   4.91329   6.70853  2       69
siesta:     26.55066   6.27389   9.44863  1       70
siesta:     25.43572   7.59670   9.95886  2       71
siesta:     28.19473   6.99199   9.59981  2       72
siesta:      7.89906   4.51645   3.28812  1       73
siesta:      8.86282   3.19364   4.06291  2       74
siesta:      6.29279   3.74166   2.91018  2       75
siesta:     28.85613  22.79011   3.74166  1       76
siesta:     27.43883  23.79166   4.25189  2       77
siesta:     30.29232  23.82946   4.08181  2       78
siesta:     15.38238  23.18695   9.52422  1       79
siesta:     16.47842  22.63893  10.84703  2       80
siesta:     16.47842  23.82946   8.23921  2       81
siesta:     23.64048  15.23120  17.51777  1       82
siesta:     24.35858  13.64383  17.08313  2       83
siesta:     24.45307  16.42173  16.42173  2       84
siesta:     23.45151   9.97776  10.90372  1       85
siesta:     21.73186   9.46753  11.13049  2       86
siesta:     23.39482  11.77300  11.01711  2       87
siesta:     11.01711   5.66918  18.25476  1       88
siesta:     11.41395   5.40462  16.49732  2       89
siesta:     11.09270   4.02512  18.97286  2       90
siesta:     22.35547  25.05778  19.72875  1       91
siesta:     21.20274  24.71763  21.08935  2       92
siesta:     23.43261  23.62159  19.67206  2       93
siesta:     21.76965  16.79967  27.74119  1       94
siesta:     21.46730  17.95241  26.38059  2       95
siesta:     22.80900  17.72564  28.89392  2       96
siesta:     21.59958  19.29411  23.22474  1       97
siesta:     20.42795  18.14138  22.44996  2       98
siesta:     23.22474  18.50043  22.99798  2       99
siesta:     20.22008   7.36993   4.81880  1      100
siesta:     21.71296   8.22031   5.40462  2      101
siesta:     20.71141   6.61404   3.25033  2      102
siesta:     16.42173   1.88973   2.19208  1      103
siesta:     15.79812   3.17474   1.07714  2      104
siesta:     14.94774   1.09604   2.85349  2      105
siesta:      8.46598  10.63916   3.53379  1      106
siesta:      9.24076  10.97931   1.94642  2      107
siesta:      8.84392  12.09425   4.55424  2      108
siesta:     17.10203  15.02333  29.66871  1      109
siesta:     15.89260  16.04378  28.76164  2      110
siesta:     18.70830  15.53355  29.02620  2      111
siesta:      5.78256   4.19519  12.35881  1      112
siesta:      4.89439   2.60782  12.32102  2      113
siesta:      7.48332   3.74166  12.73676  2      114
siesta:     14.04067  22.35547  16.95085  1      115
siesta:     13.34147  20.74920  16.49732  2      116
siesta:     14.17295  23.24364  15.38238  2      117
siesta:      8.42818  16.00599  26.19161  1      118
siesta:      6.76522  15.32568  26.45618  2      119
siesta:      9.01400  15.15561  24.69873  2      120
siesta:     -0.20787  22.35547  23.26254  1      121
siesta:      1.51178  22.52554  22.77121  2      122
siesta:     -1.02045  21.63737  21.82635  2      123
siesta:      1.49288   8.88172   9.33525  1      124
siesta:      1.92752  10.54468   8.76833  2      125
siesta:      3.00467   7.91796   9.16518  2      126
siesta:      4.81880  22.56334   8.10693  1      127
siesta:      4.83770  20.78700   7.78567  2      128
siesta:      5.78256  23.26254   6.74632  2      129
siesta:     16.72408   3.28812  20.10669  1      130
siesta:     16.62960   5.08337  20.06890  2      131
siesta:     15.02333   2.72121  19.86103  2      132
siesta:     29.91438  14.09736  14.75877  1      133
siesta:     29.08290  12.54779  15.13671  2      134
siesta:     28.61046  15.34458  14.85325  2      135
siesta:      8.18252  27.43883  18.78389  1      136
siesta:      6.40617  27.60891  19.02955  2      137
siesta:      8.42818  25.71918  18.31145  2      138
siesta:     27.77899   6.23610  21.73186  1      139
siesta:     29.21518   5.57469  20.86258  2      140
siesta:     27.11758   4.83770  22.65783  2      141
siesta:     29.68761  13.09581   1.07714  1      142
siesta:     28.15693  12.39661   0.39684  2      143
siesta:     30.65137  11.65961   1.58737  2      144
siesta:     19.40750  24.11291  24.01843  1      145
siesta:     17.87682  24.58535  23.16805  2      146
siesta:     19.27521  22.33657  24.22630  2      147
siesta:     23.75387  12.45330   3.68497  1      148
siesta:     23.79166  13.81390   4.87550  2      149
siesta:     24.67983  11.13049   4.47865  2      150
siesta:     22.29878  21.18384   9.01400  1      151
siesta:     20.93817  20.82479  10.16673  2      152
siesta:     21.97752  22.88459   8.46598  2      153
siesta:      6.85971  10.67696  25.98374  1      154
siesta:      7.23765  10.31791  24.26409  2      155
siesta:      8.06913   9.71320  26.92861  2      156
siesta:     13.13360  18.44373  28.89392  1      157
siesta:     11.50844  18.34925  28.11914  2      158
siesta:     12.98242  19.76654  30.12225  2      159
siesta:     26.19161   2.75900  25.09557  1      160
siesta:     24.45307   3.23143  24.90660  2      161
siesta:     26.49397   1.62517  23.71607  2      162
siesta:      8.46598  22.33657   4.53534  1      163
siesta:      7.86126  20.80589   3.76056  2      164
siesta:      8.22031  23.60269   3.26923  2      165
siesta:     25.37903  10.71475  16.27055  1      166
siesta:     24.45307   9.67540  17.42328  2      167
siesta:     24.81211  10.18563  14.62649  2      168
siesta:     20.50354   0.94486  23.43261  1      169
siesta:     19.97441   1.02045  25.15226  2      170
siesta:     19.10514   1.58737  22.48775  2      171
siesta:     14.02177   7.88016  24.11291  1      172
siesta:     15.04223   8.50377  22.75231  2      173
siesta:     13.36037   6.31169  23.50820  2      174
siesta:     11.71631  17.83902  16.93195  1      175
siesta:     10.96042  17.36659  18.51932  2      176
siesta:     10.60137  17.15872  15.68473  2      177
siesta:     17.65005   4.08181   8.08803  1      178
siesta:     17.97130   5.32903   6.80302  2      179
siesta:     15.85481   4.08181   8.25811  2      180
siesta:      6.51956  17.83902   2.72121  1      181
siesta:      5.65028  16.28945   3.04246  2      182
siesta:      5.97154  18.33035   1.07714  2      183
siesta:     18.57602  20.69251  13.19029  1      184
siesta:     18.25476  19.50198  14.51310  2      185
siesta:     18.57602  22.29878  14.02177  2      186
siesta:      3.42041  26.90971   4.25189  1      187
siesta:      4.38417  28.30811   4.89439  2      188
siesta:      2.04091  26.73964   5.40462  2      189
siesta:     29.19628  28.76164  14.77766  1      190
siesta:     28.13803  27.34435  14.49421  2      191
siesta:     30.21673  28.30811  16.19496  2      192
siesta:     12.73676  26.24831  13.19029  1      193
siesta:     13.60603  27.83568  13.11470  2      194
siesta:     13.03912  25.49242  11.56513  2      195
siesta:     26.26720  24.86881  12.83125  1      196
siesta:     24.62314  24.47196  12.18874  2      197
siesta:     27.36325  23.71607  11.96197  2      198
siesta:     11.24387  13.56824  29.70651  1      199
siesta:     12.50999  14.85325  29.91438  2      200
siesta:     10.05335  14.30523  28.55377  2      201
siesta:     22.58224  24.33968  28.49708  1      202
siesta:     21.37281  24.35858  27.13648  2      203
siesta:     24.15071  24.77432  27.70340  2      204
siesta:     11.82969   0.90707  20.59802  1      205
siesta:     11.30057   0.96376  22.33657  2      206
siesta:     10.73365  -0.32125  19.82323  2      207
siesta:      2.66451   4.34637   3.57158  1      208
siesta:      2.34326   6.10382   3.72276  2      209
siesta:      2.38106   3.96843   1.83304  2      210
siesta:     28.96951  18.34925  27.59001  1      211
siesta:     28.04355  18.51932  26.04044  2      212
siesta:     27.76009  18.67050  28.87503  2      213
siesta:      7.76678  25.64359  11.73520  1      214
siesta:      9.16518  26.32390  12.64227  2      215
siesta:      8.16362  23.88615  11.54623  2      216
siesta:     21.33502  26.60735  10.48798  1      217
siesta:     21.37281  26.66405  12.28322  2      218
siesta:     22.22319  28.08134   9.95886  2      219
siesta:      4.83770  10.43129  17.66895  1      220
siesta:      4.30858  12.15094  17.70674  2      221
siesta:      3.45820   9.54312  16.89416  2      222
siesta:      6.84081   7.82347   8.69274  1      223
siesta:      6.55735   6.33059   9.65650  2      224
siesta:      7.40773   7.21876   7.08648  2      225
siesta:     17.04534  10.56357  15.36348  1      226
siesta:     18.46263   9.69430  14.64538  2      227
siesta:     15.62804   9.99666  14.39972  2      228
siesta:     26.43728  28.11914  21.73186  1      229
siesta:     26.39948  27.74119  23.48931  2      230
siesta:     24.92550  27.36325  21.07045  2      231
siesta:     20.40905   1.05825  28.81833  1      232
siesta:     19.19963   1.53068  30.08445  2      233
siesta:     20.54133  -0.73699  28.96951  2      234
siesta:      9.78879  14.73987   6.16051  1      235
siesta:      9.46753  16.02488   4.93219  2      236
siesta:     11.56513  14.89105   6.50066  2      237
siesta:     24.49086  19.29411   1.28501  1      238
siesta:     23.92394  18.42484   2.77790  2      239
siesta:     24.58535  21.03266   1.79524  2      240
siesta:     24.37748  16.51621   7.16206  1      241
siesta:     26.07823  16.74298   6.55735  2      242
siesta:     23.71607  18.19807   7.31324  2      243
siesta:     15.15561  25.53021  21.63737  1      244
siesta:     14.75877  27.28766  21.35391  2      245
siesta:     15.21230  24.81211  19.97441  2      246
siesta:      3.26923  14.89105  26.55066  1      247
siesta:      2.68341  13.19029  26.58846  2      248
siesta:      2.11649  15.79812  27.57112  2      249
siesta:      0.86927   7.99354  15.09892  1      250
siesta:      1.20943   8.73054  13.47375  2      251
siesta:     -0.83148   7.44552  15.00443  2      252
siesta:      9.03289   6.42507  28.25142  1      253
siesta:      8.29590   5.99043  29.83879  2      254
siesta:     10.80924   6.21720  28.49708  2      255
siesta:     29.17738  11.18718  24.15071  1      256
siesta:     28.47818   9.82658  23.18695  2      257
siesta:     27.98686  11.47064  25.47352  2      258
siesta:     10.88483  26.15382   7.69119  1      259
siesta:     10.60137  24.39637   7.40773  2      260
siesta:      9.88327  26.53177   9.16518  2      261
siesta:     19.74765   9.88327  25.88926  1      262
siesta:     19.06734  11.31946  25.01998  2      263
siesta:     21.03266  10.56357  26.94751  2      264
siesta:      4.00622  20.01221  28.44039  1      265
siesta:      4.96998  18.99176  27.28766  2      266
siesta:      2.28657  19.70985  27.98686  2      267
siesta:     18.40594  24.47196   5.36682  1      268
siesta:     20.08780  23.82946   5.21565  2      269
siesta:     18.10358  25.32234   3.77945  2      270
siesta:     26.62625  18.10358  14.28634  1      271
siesta:     27.81678  19.29411  13.60603  2      272
siesta:     25.62470  17.61225  12.86904  2      273
siesta:      5.17785  28.87503  24.90660  1      274
siesta:      3.93063  28.28921  23.73497  2      275
siesta:      4.21409  29.61202  26.24831  2      276
siesta:      2.94797  20.65471  17.06423  1      277
siesta:      3.91173  21.33502  18.42484  2      278
siesta:      3.55269  18.95396  16.87526  2      279
siesta:      0.88817  21.37281  12.16984  1      280
siesta:      1.90862  22.29878  10.99821  2      281
siesta:      1.70075  21.61848  13.75721  2      282
siesta:      3.72276  17.61225  10.11004  1      283
siesta:      5.17785  17.36659  11.16829  2      284
siesta:      2.41885  18.14138  11.22498  2      285
siesta:      9.42974   2.58893  24.71763  1      286
siesta:      8.08803   1.37950  24.75542  2      287
siesta:      8.88172   3.89284  25.85146  2      288
siesta:      8.86282  20.69251  11.11159  1      289
siesta:      7.69119  20.69251   9.75099  2      290
siesta:      8.65495  19.04845  11.86748  2      291
siesta:     12.32102   8.03134   5.51800  1      292
siesta:     13.51155   8.27700   4.17630  2      293
siesta:     10.84703   8.91951   4.95108  2      294
siesta:      9.01400  20.67361  22.14760  1      295
siesta:      8.65495  21.80745  20.78700  2      296
siesta:      9.16518  19.04845  21.35391  2      297
siesta:     16.93195   0.52912  12.71786  1      298
siesta:     16.70519   2.02201  11.71631  2      299
siesta:     18.00910  -0.52912  11.71631  2      300
siesta:      9.27856   9.59981  20.93817  1      301
siesta:      7.55891   9.84548  20.40905  2      302
siesta:      9.76989   8.05024  20.12559  2      303
siesta:      3.15584   9.58092   3.38261  1      304
siesta:      2.66451   9.90217   5.10226  2      305
siesta:      4.85660  10.20453   3.26923  2      306
siesta:     13.85170  21.58068   4.04402  1      307
siesta:     15.25010  22.33657   4.87550  2      308
siesta:     12.39661  22.39326   4.76211  2      309
siesta:     26.02154  17.00754  21.80745  1      310
siesta:     27.62781  16.21386  22.09091  2      311
siesta:     25.41683  16.27055  20.27677  2      312
siesta:     26.58846  21.86414  18.25476  1      313
siesta:     26.70184  20.29567  17.36659  2      314
siesta:     26.55066  23.11136  16.95085  2      315
siesta:      2.21098  28.74275  20.10669  1      316
siesta:      0.43464  28.55377  20.44684  2      317
siesta:      2.49444  30.51909  20.23897  2      318
siesta:     11.73520  23.28144  25.60580  1      319
siesta:     10.75255  22.07201  24.67983  2      320
siesta:     12.88794  23.98063  24.37748  2      321
siesta:     25.22785  11.58403  28.17583  1      322
siesta:     24.62314  13.26588  28.00575  2      323
siesta:     24.45307  10.96042  29.66871  2      324
siesta:     27.00420   3.77945  16.32724  1      325
siesta:     27.98686   2.72121  15.25010  2      326
siesta:     25.32234   3.70386  15.64694  2      327
siesta:     14.30523   6.25500  28.83723  1      328
siesta:     15.19340   7.52111  29.76320  2      329
siesta:     14.15405   6.93530  27.17427  2      330
siesta:      4.93219  24.26409  21.05156  1      331
siesta:      3.85504  25.70029  20.76810  2      332
siesta:      5.95264  24.73652  22.44996  2      333
siesta:     17.72564  18.08469   4.06291  1      334
siesta:     17.53667  16.98864   2.62672  2      335
siesta:     16.45952  19.35080   3.83615  2      336
siesta:     18.06579  14.68318  12.85014  1      337
siesta:     17.47997  13.43596  14.02177  2      338
siesta:     17.02644  14.45641  11.37616  2      339
siesta:      5.61249   1.24722   6.87861  1      340
siesta:      4.89439   2.81569   6.31169  2      341
siesta:      4.72432   0.85038   8.39039  2      342
siesta:      4.34637  15.85481  16.96975  1      343
siesta:      3.70386  15.83591  18.67050  2      344
siesta:      3.04246  15.13671  15.96819  2      345
siesta:     12.45330   8.97620  12.33992  1      346
siesta:     10.84703   9.73209  12.66117  2      347
siesta:     12.69896   9.18407  10.56357  2      348
siesta:     22.37437   9.14628  19.86103  1      349
siesta:     22.43106  10.37460  21.20274  2      350
siesta:     23.43261   7.80457  20.42795  2      351
siesta:     14.62649  15.96819   8.40928  1      352
siesta:     13.09581  16.79967   8.90061  2      353
siesta:     15.38238  17.08313   7.21876  2      354
siesta:      0.01890  27.23096   8.12583  1      355
siesta:      0.94486  28.17583   9.35415  2      356
siesta:     -0.96376  28.47818   7.23765  2      357
siesta:      8.82502  22.63893  17.02644  1      358
siesta:      8.48487  22.97908  15.28789  2      359
siesta:     10.60137  22.86570  17.19651  2      360
siesta:     15.81701  10.62027   8.01244  1      361
siesta:     14.58869   9.95886   6.85971  2      362
siesta:     15.81701  12.39661   7.72898  2      363
siesta:     11.50844  29.47974   4.15740  1      364
siesta:     10.97931  28.78054   2.57003  2      365
siesta:     11.01711  28.25142   5.38572  2      366
siesta:     19.38860  25.56800  15.51466  1      367
siesta:     20.18228  25.39793  17.12093  2      368
siesta:     19.12404  27.34435  15.32568  2      369
siesta:     23.26254  15.04223  11.75410  1      370
siesta:     21.56178  15.17451  12.32102  2      371
siesta:     23.16805  15.30679   9.95886  2      372
siesta:     19.10514   7.84237  10.99821  1      373
siesta:     18.67050   6.40617   9.97776  2      374
siesta:     18.16028   9.20297  10.28011  2      375
siesta:     26.62625   4.04402   1.28501  1      376
siesta:     24.92550   4.08181   0.66140  2      377
siesta:     27.60891   3.32592  -0.05669  2      378
siesta:      3.32592  29.34746  11.67851  1      379
siesta:      4.64873  28.19473  12.15094  2      380
siesta:      1.88973  28.81833  12.64227  2      381
siesta:      8.10693  16.10047  13.19029  1      382
siesta:      6.97309  16.51621  14.53200  2      383
siesta:      8.06913  14.28634  13.13360  2      384

siesta: System type = bulk      

initatomlists: Number of atoms, orbitals, and projectors:    384  2944  4352

siesta: ******************** Simulation parameters ****************************
siesta:
siesta: The following are some of the parameters of the simulation.
siesta: A complete list of the parameters used, including default values,
siesta: can be found in file out.fdf
siesta:
redata: Non-Collinear-spin run           =     F
redata: SpinPolarized (Up/Down) run      =     F
redata: Number of spin components        =     1
redata: Long output                      =     F
redata: Number of Atomic Species         =        2
redata: Charge density info will appear in .RHO file
redata: Write Mulliken Pop.              =     NO
redata: Mesh Cutoff                      =   150.0000  Ry
redata: Net charge of the system         =     0.0000 |e|
redata: Min. number of SCF Iter          =        0
redata: Max. number of SCF Iter          =       50
redata: Mix DM or H after convergence    =     F
redata: Recompute H after scf cycle      =     F
redata: Performing Pulay mixing using    =     3 iterations
redata: Mix DM in first SCF step ?       =     F
redata: Write Pulay info on disk?        =     F
redata: Discard 1st Pulay DM after  kick =     F
redata: New DM Mixing Weight             =     0.3000
redata: New DM Occupancy tolerance       = 0.000000000001
redata: No kicks to SCF
redata: DM Mixing Weight for Kicks       =     0.5000
redata: DM Tolerance for SCF             =     0.000100
redata: Require (free) Energy convergence in SCF =     F
redata: DM (free)Energy tolerance for SCF =     0.000010 eV
redata: Require Harris convergence for SCF =     F
redata: DM Harris energy tolerance for SCF =     0.000010 eV
redata: Using Saved Data (generic)   =     F
redata: Use continuation files for DM    =     F
redata: Neglect nonoverlap interactions  =     F
redata: Method of Calculation            =     Diagonalization
redata: Divide and Conquer               =     T
redata: Electronic Temperature           =     0.0019  Ry
redata: Fix the spin of the system       =     F
redata: Dynamics option                  =     Single-point calculation
redata: ***********************************************************************
Total number of electrons:  1024.000000
Total ionic charge:  1024.000000

* ProcessorY, Blocksize:   32  23


* Orbital distribution balance (max,min):    23     0

 Kpoints in:            1 . Kpoints trimmed:            1

siesta: k-grid: Number of k-points =     1
siesta: k-grid: Cutoff (effective) =     7.823 Ang
siesta: k-grid: Supercell and displacements
siesta: k-grid:    1   0   0      0.000
siesta: k-grid:    0   1   0      0.000
siesta: k-grid:    0   0   1      0.000

                     ====================================
                        Single-point calculation
                     ====================================

outcell: Unit cell vectors (Ang):
       15.646046    0.000000    0.000000
        0.000000   15.646046    0.000000
        0.000000    0.000000   15.646046

outcell: Cell vector modules (Ang)   :   15.646046   15.646046   15.646046
outcell: Cell angles (23,13,12) (deg):     90.0000     90.0000     90.0000
outcell: Cell volume (Ang**3)        :   3830.1327
New_DM. Step:     1
Initializing Density Matrix...
New grid distribution:   1
           1       1:   60    1:    2    1:    2
           2       1:   60    1:    2    3:    4
           3       1:   60    1:    2    5:    6
           4       1:   60    1:    2    7:    8
           5       1:   60    1:    2    9:   10
           6       1:   60    1:    2   11:   12
           7       1:   60    1:    2   13:   14
           8       1:   60    1:    2   15:   16
           9       1:   60    1:    2   17:   18
          10       1:   60    1:    2   19:   20
          11       1:   60    1:    2   21:   22
          12       1:   60    1:    2   23:   24
          13       1:   60    1:    2   25:   26
          14       1:   60    1:    2   27:   28
          15       1:   60    1:    2   29:   30
          16       1:   60    1:    2   31:   32
          17       1:   60    1:    2   33:   34
          18       1:   60    1:    2   35:   36
          19       1:   60    1:    2   37:   38
          20       1:   60    1:    2   39:   40
          21       1:   60    1:    2   41:   42
          22       1:   60    1:    2   43:   44
          23       1:   60    1:    2   45:   46
          24       1:   60    1:    2   47:   48
          25       1:   60    1:    2   49:   50
          26       1:   60    1:    2   51:   52
          27       1:   60    1:    2   53:   54
          28       1:   60    1:    2   55:   56
          29       1:   60    1:    2   57:   57
          30       1:   60    1:    2   58:   58
          31       1:   60    1:    2   59:   59
          32       1:   60    1:    2   60:   60
          33       1:   60    3:    4    1:    2
          34       1:   60    3:    4    3:    4
          35       1:   60    3:    4    5:    6
          36       1:   60    3:    4    7:    8
          37       1:   60    3:    4    9:   10
          38       1:   60    3:    4   11:   12
          39       1:   60    3:    4   13:   14
          40       1:   60    3:    4   15:   16
          41       1:   60    3:    4   17:   18
          42       1:   60    3:    4   19:   20
          43       1:   60    3:    4   21:   22
          44       1:   60    3:    4   23:   24
          45       1:   60    3:    4   25:   26
          46       1:   60    3:    4   27:   28
          47       1:   60    3:    4   29:   30
          48       1:   60    3:    4   31:   32
          49       1:   60    3:    4   33:   34
          50       1:   60    3:    4   35:   36
          51       1:   60    3:    4   37:   38
          52       1:   60    3:    4   39:   40
          53       1:   60    3:    4   41:   42
          54       1:   60    3:    4   43:   44
          55       1:   60    3:    4   45:   46
          56       1:   60    3:    4   47:   48
          57       1:   60    3:    4   49:   50
          58       1:   60    3:    4   51:   52
          59       1:   60    3:    4   53:   54
          60       1:   60    3:    4   55:   56
          61       1:   60    3:    4   57:   57
          62       1:   60    3:    4   58:   58
          63       1:   60    3:    4   59:   59
          64       1:   60    3:    4   60:   60
          65       1:   60    5:    6    1:    2
          66       1:   60    5:    6    3:    4
          67       1:   60    5:    6    5:    6
          68       1:   60    5:    6    7:    8
          69       1:   60    5:    6    9:   10
          70       1:   60    5:    6   11:   12
          71       1:   60    5:    6   13:   14
          72       1:   60    5:    6   15:   16
          73       1:   60    5:    6   17:   18
          74       1:   60    5:    6   19:   20
          75       1:   60    5:    6   21:   22
          76       1:   60    5:    6   23:   24
          77       1:   60    5:    6   25:   26
          78       1:   60    5:    6   27:   28
          79       1:   60    5:    6   29:   30
          80       1:   60    5:    6   31:   32
          81       1:   60    5:    6   33:   34
          82       1:   60    5:    6   35:   36
          83       1:   60    5:    6   37:   38
          84       1:   60    5:    6   39:   40
          85       1:   60    5:    6   41:   42
          86       1:   60    5:    6   43:   44
          87       1:   60    5:    6   45:   46
          88       1:   60    5:    6   47:   48
          89       1:   60    5:    6   49:   50
          90       1:   60    5:    6   51:   52
          91       1:   60    5:    6   53:   54
          92       1:   60    5:    6   55:   56
          93       1:   60    5:    6   57:   57
          94       1:   60    5:    6   58:   58
          95       1:   60    5:    6   59:   59
          96       1:   60    5:    6   60:   60
          97       1:   60    7:    8    1:    2
          98       1:   60    7:    8    3:    4
          99       1:   60    7:    8    5:    6
         100       1:   60    7:    8    7:    8
         101       1:   60    7:    8    9:   10
         102       1:   60    7:    8   11:   12
         103       1:   60    7:    8   13:   14
         104       1:   60    7:    8   15:   16
         105       1:   60    7:    8   17:   18
         106       1:   60    7:    8   19:   20
         107       1:   60    7:    8   21:   22
         108       1:   60    7:    8   23:   24
         109       1:   60    7:    8   25:   26
         110       1:   60    7:    8   27:   28
         111       1:   60    7:    8   29:   30
         112       1:   60    7:    8   31:   32
         113       1:   60    7:    8   33:   34
         114       1:   60    7:    8   35:   36
         115       1:   60    7:    8   37:   38
         116       1:   60    7:    8   39:   40
         117       1:   60    7:    8   41:   42
         118       1:   60    7:    8   43:   44
         119       1:   60    7:    8   45:   46
         120       1:   60    7:    8   47:   48
         121       1:   60    7:    8   49:   50
         122       1:   60    7:    8   51:   52
         123       1:   60    7:    8   53:   54
         124       1:   60    7:    8   55:   56
         125       1:   60    7:    8   57:   57
         126       1:   60    7:    8   58:   58
         127       1:   60    7:    8   59:   59
         128       1:   60    7:    8   60:   60
         129       1:   60    9:   10    1:    2
         130       1:   60    9:   10    3:    4
         131       1:   60    9:   10    5:    6
         132       1:   60    9:   10    7:    8
         133       1:   60    9:   10    9:   10
         134       1:   60    9:   10   11:   12
         135       1:   60    9:   10   13:   14
         136       1:   60    9:   10   15:   16
         137       1:   60    9:   10   17:   18
         138       1:   60    9:   10   19:   20
         139       1:   60    9:   10   21:   22
         140       1:   60    9:   10   23:   24
         141       1:   60    9:   10   25:   26
         142       1:   60    9:   10   27:   28
         143       1:   60    9:   10   29:   30
         144       1:   60    9:   10   31:   32
         145       1:   60    9:   10   33:   34
         146       1:   60    9:   10   35:   36
         147       1:   60    9:   10   37:   38
         148       1:   60    9:   10   39:   40
         149       1:   60    9:   10   41:   42
         150       1:   60    9:   10   43:   44
         151       1:   60    9:   10   45:   46
         152       1:   60    9:   10   47:   48
         153       1:   60    9:   10   49:   50
         154       1:   60    9:   10   51:   52
         155       1:   60    9:   10   53:   54
         156       1:   60    9:   10   55:   56
         157       1:   60    9:   10   57:   57
         158       1:   60    9:   10   58:   58
         159       1:   60    9:   10   59:   59
         160       1:   60    9:   10   60:   60
         161       1:   60   11:   12    1:    2
         162       1:   60   11:   12    3:    4
         163       1:   60   11:   12    5:    6
         164       1:   60   11:   12    7:    8
         165       1:   60   11:   12    9:   10
         166       1:   60   11:   12   11:   12
         167       1:   60   11:   12   13:   14
         168       1:   60   11:   12   15:   16
         169       1:   60   11:   12   17:   18
         170       1:   60   11:   12   19:   20
         171       1:   60   11:   12   21:   22
         172       1:   60   11:   12   23:   24
         173       1:   60   11:   12   25:   26
         174       1:   60   11:   12   27:   28
         175       1:   60   11:   12   29:   30
         176       1:   60   11:   12   31:   32
         177       1:   60   11:   12   33:   34
         178       1:   60   11:   12   35:   36
         179       1:   60   11:   12   37:   38
         180       1:   60   11:   12   39:   40
         181       1:   60   11:   12   41:   42
         182       1:   60   11:   12   43:   44
         183       1:   60   11:   12   45:   46
         184       1:   60   11:   12   47:   48
         185       1:   60   11:   12   49:   50
         186       1:   60   11:   12   51:   52
         187       1:   60   11:   12   53:   54
         188       1:   60   11:   12   55:   56
         189       1:   60   11:   12   57:   57
         190       1:   60   11:   12   58:   58
         191       1:   60   11:   12   59:   59
         192       1:   60   11:   12   60:   60
         193       1:   60   13:   14    1:    2
         194       1:   60   13:   14    3:    4
         195       1:   60   13:   14    5:    6
         196       1:   60   13:   14    7:    8
         197       1:   60   13:   14    9:   10
         198       1:   60   13:   14   11:   12
         199       1:   60   13:   14   13:   14
         200       1:   60   13:   14   15:   16
         201       1:   60   13:   14   17:   18
         202       1:   60   13:   14   19:   20
         203       1:   60   13:   14   21:   22
         204       1:   60   13:   14   23:   24
         205       1:   60   13:   14   25:   26
         206       1:   60   13:   14   27:   28
         207       1:   60   13:   14   29:   30
         208       1:   60   13:   14   31:   32
         209       1:   60   13:   14   33:   34
         210       1:   60   13:   14   35:   36
         211       1:   60   13:   14   37:   38
         212       1:   60   13:   14   39:   40
         213       1:   60   13:   14   41:   42
         214       1:   60   13:   14   43:   44
         215       1:   60   13:   14   45:   46
         216       1:   60   13:   14   47:   48
         217       1:   60   13:   14   49:   50
         218       1:   60   13:   14   51:   52
         219       1:   60   13:   14   53:   54
         220       1:   60   13:   14   55:   56
         221       1:   60   13:   14   57:   57
         222       1:   60   13:   14   58:   58
         223       1:   60   13:   14   59:   59
         224       1:   60   13:   14   60:   60
         225       1:   60   15:   16    1:    2
         226       1:   60   15:   16    3:    4
         227       1:   60   15:   16    5:    6
         228       1:   60   15:   16    7:    8
         229       1:   60   15:   16    9:   10
         230       1:   60   15:   16   11:   12
         231       1:   60   15:   16   13:   14
         232       1:   60   15:   16   15:   16
         233       1:   60   15:   16   17:   18
         234       1:   60   15:   16   19:   20
         235       1:   60   15:   16   21:   22
         236       1:   60   15:   16   23:   24
         237       1:   60   15:   16   25:   26
         238       1:   60   15:   16   27:   28
         239       1:   60   15:   16   29:   30
         240       1:   60   15:   16   31:   32
         241       1:   60   15:   16   33:   34
         242       1:   60   15:   16   35:   36
         243       1:   60   15:   16   37:   38
         244       1:   60   15:   16   39:   40
         245       1:   60   15:   16   41:   42
         246       1:   60   15:   16   43:   44
         247       1:   60   15:   16   45:   46
         248       1:   60   15:   16   47:   48
         249       1:   60   15:   16   49:   50
         250       1:   60   15:   16   51:   52
         251       1:   60   15:   16   53:   54
         252       1:   60   15:   16   55:   56
         253       1:   60   15:   16   57:   57
         254       1:   60   15:   16   58:   58
         255       1:   60   15:   16   59:   59
         256       1:   60   15:   16   60:   60
         257       1:   60   17:   18    1:    2
         258       1:   60   17:   18    3:    4
         259       1:   60   17:   18    5:    6
         260       1:   60   17:   18    7:    8
         261       1:   60   17:   18    9:   10
         262       1:   60   17:   18   11:   12
         263       1:   60   17:   18   13:   14
         264       1:   60   17:   18   15:   16
         265       1:   60   17:   18   17:   18
         266       1:   60   17:   18   19:   20
         267       1:   60   17:   18   21:   22
         268       1:   60   17:   18   23:   24
         269       1:   60   17:   18   25:   26
         270       1:   60   17:   18   27:   28
         271       1:   60   17:   18   29:   30
         272       1:   60   17:   18   31:   32
         273       1:   60   17:   18   33:   34
         274       1:   60   17:   18   35:   36
         275       1:   60   17:   18   37:   38
         276       1:   60   17:   18   39:   40
         277       1:   60   17:   18   41:   42
         278       1:   60   17:   18   43:   44
         279       1:   60   17:   18   45:   46
         280       1:   60   17:   18   47:   48
         281       1:   60   17:   18   49:   50
         282       1:   60   17:   18   51:   52
         283       1:   60   17:   18   53:   54
         284       1:   60   17:   18   55:   56
         285       1:   60   17:   18   57:   57
         286       1:   60   17:   18   58:   58
         287       1:   60   17:   18   59:   59
         288       1:   60   17:   18   60:   60
         289       1:   60   19:   20    1:    2
         290       1:   60   19:   20    3:    4
         291       1:   60   19:   20    5:    6
         292       1:   60   19:   20    7:    8
         293       1:   60   19:   20    9:   10
         294       1:   60   19:   20   11:   12
         295       1:   60   19:   20   13:   14
         296       1:   60   19:   20   15:   16
         297       1:   60   19:   20   17:   18
         298       1:   60   19:   20   19:   20
         299       1:   60   19:   20   21:   22
         300       1:   60   19:   20   23:   24
         301       1:   60   19:   20   25:   26
         302       1:   60   19:   20   27:   28
         303       1:   60   19:   20   29:   30
         304       1:   60   19:   20   31:   32
         305       1:   60   19:   20   33:   34
         306       1:   60   19:   20   35:   36
         307       1:   60   19:   20   37:   38
         308       1:   60   19:   20   39:   40
         309       1:   60   19:   20   41:   42
         310       1:   60   19:   20   43:   44
         311       1:   60   19:   20   45:   46
         312       1:   60   19:   20   47:   48
         313       1:   60   19:   20   49:   50
         314       1:   60   19:   20   51:   52
         315       1:   60   19:   20   53:   54
         316       1:   60   19:   20   55:   56
         317       1:   60   19:   20   57:   57
         318       1:   60   19:   20   58:   58
         319       1:   60   19:   20   59:   59
         320       1:   60   19:   20   60:   60
         321       1:   60   21:   22    1:    2
         322       1:   60   21:   22    3:    4
         323       1:   60   21:   22    5:    6
         324       1:   60   21:   22    7:    8
         325       1:   60   21:   22    9:   10
         326       1:   60   21:   22   11:   12
         327       1:   60   21:   22   13:   14
         328       1:   60   21:   22   15:   16
         329       1:   60   21:   22   17:   18
         330       1:   60   21:   22   19:   20
         331       1:   60   21:   22   21:   22
         332       1:   60   21:   22   23:   24
         333       1:   60   21:   22   25:   26
         334       1:   60   21:   22   27:   28
         335       1:   60   21:   22   29:   30
         336       1:   60   21:   22   31:   32
         337       1:   60   21:   22   33:   34
         338       1:   60   21:   22   35:   36
         339       1:   60   21:   22   37:   38
         340       1:   60   21:   22   39:   40
         341       1:   60   21:   22   41:   42
         342       1:   60   21:   22   43:   44
         343       1:   60   21:   22   45:   46
         344       1:   60   21:   22   47:   48
         345       1:   60   21:   22   49:   50
         346       1:   60   21:   22   51:   52
         347       1:   60   21:   22   53:   54
         348       1:   60   21:   22   55:   56
         349       1:   60   21:   22   57:   57
         350       1:   60   21:   22   58:   58
         351       1:   60   21:   22   59:   59
         352       1:   60   21:   22   60:   60
         353       1:   60   23:   24    1:    2
         354       1:   60   23:   24    3:    4
         355       1:   60   23:   24    5:    6
         356       1:   60   23:   24    7:    8
         357       1:   60   23:   24    9:   10
         358       1:   60   23:   24   11:   12
         359       1:   60   23:   24   13:   14
         360       1:   60   23:   24   15:   16
         361       1:   60   23:   24   17:   18
         362       1:   60   23:   24   19:   20
         363       1:   60   23:   24   21:   22
         364       1:   60   23:   24   23:   24
         365       1:   60   23:   24   25:   26
         366       1:   60   23:   24   27:   28
         367       1:   60   23:   24   29:   30
         368       1:   60   23:   24   31:   32
         369       1:   60   23:   24   33:   34
         370       1:   60   23:   24   35:   36
         371       1:   60   23:   24   37:   38
         372       1:   60   23:   24   39:   40
         373       1:   60   23:   24   41:   42
         374       1:   60   23:   24   43:   44
         375       1:   60   23:   24   45:   46
         376       1:   60   23:   24   47:   48
         377       1:   60   23:   24   49:   50
         378       1:   60   23:   24   51:   52
         379       1:   60   23:   24   53:   54
         380       1:   60   23:   24   55:   56
         381       1:   60   23:   24   57:   57
         382       1:   60   23:   24   58:   58
         383       1:   60   23:   24   59:   59
         384       1:   60   23:   24   60:   60
         385       1:   60   25:   26    1:    2
         386       1:   60   25:   26    3:    4
         387       1:   60   25:   26    5:    6
         388       1:   60   25:   26    7:    8
         389       1:   60   25:   26    9:   10
         390       1:   60   25:   26   11:   12
         391       1:   60   25:   26   13:   14
         392       1:   60   25:   26   15:   16
         393       1:   60   25:   26   17:   18
         394       1:   60   25:   26   19:   20
         395       1:   60   25:   26   21:   22
         396       1:   60   25:   26   23:   24
         397       1:   60   25:   26   25:   26
         398       1:   60   25:   26   27:   28
         399       1:   60   25:   26   29:   30
         400       1:   60   25:   26   31:   32
         401       1:   60   25:   26   33:   34
         402       1:   60   25:   26   35:   36
         403       1:   60   25:   26   37:   38
         404       1:   60   25:   26   39:   40
         405       1:   60   25:   26   41:   42
         406       1:   60   25:   26   43:   44
         407       1:   60   25:   26   45:   46
         408       1:   60   25:   26   47:   48
         409       1:   60   25:   26   49:   50
         410       1:   60   25:   26   51:   52
         411       1:   60   25:   26   53:   54
         412       1:   60   25:   26   55:   56
         413       1:   60   25:   26   57:   57
         414       1:   60   25:   26   58:   58
         415       1:   60   25:   26   59:   59
         416       1:   60   25:   26   60:   60
         417       1:   60   27:   28    1:    2
         418       1:   60   27:   28    3:    4
         419       1:   60   27:   28    5:    6
         420       1:   60   27:   28    7:    8
         421       1:   60   27:   28    9:   10
         422       1:   60   27:   28   11:   12
         423       1:   60   27:   28   13:   14
         424       1:   60   27:   28   15:   16
         425       1:   60   27:   28   17:   18
         426       1:   60   27:   28   19:   20
         427       1:   60   27:   28   21:   22
         428       1:   60   27:   28   23:   24
         429       1:   60   27:   28   25:   26
         430       1:   60   27:   28   27:   28
         431       1:   60   27:   28   29:   30
         432       1:   60   27:   28   31:   32
         433       1:   60   27:   28   33:   34
         434       1:   60   27:   28   35:   36
         435       1:   60   27:   28   37:   38
         436       1:   60   27:   28   39:   40
         437       1:   60   27:   28   41:   42
         438       1:   60   27:   28   43:   44
         439       1:   60   27:   28   45:   46
         440       1:   60   27:   28   47:   48
         441       1:   60   27:   28   49:   50
         442       1:   60   27:   28   51:   52
         443       1:   60   27:   28   53:   54
         444       1:   60   27:   28   55:   56
         445       1:   60   27:   28   57:   57
         446       1:   60   27:   28   58:   58
         447       1:   60   27:   28   59:   59
         448       1:   60   27:   28   60:   60
         449       1:   60   29:   30    1:    2
         450       1:   60   29:   30    3:    4
         451       1:   60   29:   30    5:    6
         452       1:   60   29:   30    7:    8
         453       1:   60   29:   30    9:   10
         454       1:   60   29:   30   11:   12
         455       1:   60   29:   30   13:   14
         456       1:   60   29:   30   15:   16
         457       1:   60   29:   30   17:   18
         458       1:   60   29:   30   19:   20
         459       1:   60   29:   30   21:   22
         460       1:   60   29:   30   23:   24
         461       1:   60   29:   30   25:   26
         462       1:   60   29:   30   27:   28
         463       1:   60   29:   30   29:   30
         464       1:   60   29:   30   31:   32
         465       1:   60   29:   30   33:   34
         466       1:   60   29:   30   35:   36
         467       1:   60   29:   30   37:   38
         468       1:   60   29:   30   39:   40
         469       1:   60   29:   30   41:   42
         470       1:   60   29:   30   43:   44
         471       1:   60   29:   30   45:   46
         472       1:   60   29:   30   47:   48
         473       1:   60   29:   30   49:   50
         474       1:   60   29:   30   51:   52
         475       1:   60   29:   30   53:   54
         476       1:   60   29:   30   55:   56
         477       1:   60   29:   30   57:   57
         478       1:   60   29:   30   58:   58
         479       1:   60   29:   30   59:   59
         480       1:   60   29:   30   60:   60
         481       1:   60   31:   32    1:    2
         482       1:   60   31:   32    3:    4
         483       1:   60   31:   32    5:    6
         484       1:   60   31:   32    7:    8
         485       1:   60   31:   32    9:   10
         486       1:   60   31:   32   11:   12
         487       1:   60   31:   32   13:   14
         488       1:   60   31:   32   15:   16
         489       1:   60   31:   32   17:   18
         490       1:   60   31:   32   19:   20
         491       1:   60   31:   32   21:   22
         492       1:   60   31:   32   23:   24
         493       1:   60   31:   32   25:   26
         494       1:   60   31:   32   27:   28
         495       1:   60   31:   32   29:   30
         496       1:   60   31:   32   31:   32
         497       1:   60   31:   32   33:   34
         498       1:   60   31:   32   35:   36
         499       1:   60   31:   32   37:   38
         500       1:   60   31:   32   39:   40
         501       1:   60   31:   32   41:   42
         502       1:   60   31:   32   43:   44
         503       1:   60   31:   32   45:   46
         504       1:   60   31:   32   47:   48
         505       1:   60   31:   32   49:   50
         506       1:   60   31:   32   51:   52
         507       1:   60   31:   32   53:   54
         508       1:   60   31:   32   55:   56
         509       1:   60   31:   32   57:   57
         510       1:   60   31:   32   58:   58
         511       1:   60   31:   32   59:   59
         512       1:   60   31:   32   60:   60
         513       1:   60   33:   34    1:    2
         514       1:   60   33:   34    3:    4
         515       1:   60   33:   34    5:    6
         516       1:   60   33:   34    7:    8
         517       1:   60   33:   34    9:   10
         518       1:   60   33:   34   11:   12
         519       1:   60   33:   34   13:   14
         520       1:   60   33:   34   15:   16
         521       1:   60   33:   34   17:   18
         522       1:   60   33:   34   19:   20
         523       1:   60   33:   34   21:   22
         524       1:   60   33:   34   23:   24
         525       1:   60   33:   34   25:   26
         526       1:   60   33:   34   27:   28
         527       1:   60   33:   34   29:   30
         528       1:   60   33:   34   31:   32
         529       1:   60   33:   34   33:   34
         530       1:   60   33:   34   35:   36
         531       1:   60   33:   34   37:   38
         532       1:   60   33:   34   39:   40
         533       1:   60   33:   34   41:   42
         534       1:   60   33:   34   43:   44
         535       1:   60   33:   34   45:   46
         536       1:   60   33:   34   47:   48
         537       1:   60   33:   34   49:   50
         538       1:   60   33:   34   51:   52
         539       1:   60   33:   34   53:   54
         540       1:   60   33:   34   55:   56
         541       1:   60   33:   34   57:   57
         542       1:   60   33:   34   58:   58
         543       1:   60   33:   34   59:   59
         544       1:   60   33:   34   60:   60
         545       1:   60   35:   36    1:    2
         546       1:   60   35:   36    3:    4
         547       1:   60   35:   36    5:    6
         548       1:   60   35:   36    7:    8
         549       1:   60   35:   36    9:   10
         550       1:   60   35:   36   11:   12
         551       1:   60   35:   36   13:   14
         552       1:   60   35:   36   15:   16
         553       1:   60   35:   36   17:   18
         554       1:   60   35:   36   19:   20
         555       1:   60   35:   36   21:   22
         556       1:   60   35:   36   23:   24
         557       1:   60   35:   36   25:   26
         558       1:   60   35:   36   27:   28
         559       1:   60   35:   36   29:   30
         560       1:   60   35:   36   31:   32
         561       1:   60   35:   36   33:   34
         562       1:   60   35:   36   35:   36
         563       1:   60   35:   36   37:   38
         564       1:   60   35:   36   39:   40
         565       1:   60   35:   36   41:   42
         566       1:   60   35:   36   43:   44
         567       1:   60   35:   36   45:   46
         568       1:   60   35:   36   47:   48
         569       1:   60   35:   36   49:   50
         570       1:   60   35:   36   51:   52
         571       1:   60   35:   36   53:   54
         572       1:   60   35:   36   55:   56
         573       1:   60   35:   36   57:   57
         574       1:   60   35:   36   58:   58
         575       1:   60   35:   36   59:   59
         576       1:   60   35:   36   60:   60
         577       1:   60   37:   38    1:    2
         578       1:   60   37:   38    3:    4
         579       1:   60   37:   38    5:    6
         580       1:   60   37:   38    7:    8
         581       1:   60   37:   38    9:   10
         582       1:   60   37:   38   11:   12
         583       1:   60   37:   38   13:   14
         584       1:   60   37:   38   15:   16
         585       1:   60   37:   38   17:   18
         586       1:   60   37:   38   19:   20
         587       1:   60   37:   38   21:   22
         588       1:   60   37:   38   23:   24
         589       1:   60   37:   38   25:   26
         590       1:   60   37:   38   27:   28
         591       1:   60   37:   38   29:   30
         592       1:   60   37:   38   31:   32
         593       1:   60   37:   38   33:   34
         594       1:   60   37:   38   35:   36
         595       1:   60   37:   38   37:   38
         596       1:   60   37:   38   39:   40
         597       1:   60   37:   38   41:   42
         598       1:   60   37:   38   43:   44
         599       1:   60   37:   38   45:   46
         600       1:   60   37:   38   47:   48
         601       1:   60   37:   38   49:   50
         602       1:   60   37:   38   51:   52
         603       1:   60   37:   38   53:   54
         604       1:   60   37:   38   55:   56
         605       1:   60   37:   38   57:   57
         606       1:   60   37:   38   58:   58
         607       1:   60   37:   38   59:   59
         608       1:   60   37:   38   60:   60
         609       1:   60   39:   40    1:    2
         610       1:   60   39:   40    3:    4
         611       1:   60   39:   40    5:    6
         612       1:   60   39:   40    7:    8
         613       1:   60   39:   40    9:   10
         614       1:   60   39:   40   11:   12
         615       1:   60   39:   40   13:   14
         616       1:   60   39:   40   15:   16
         617       1:   60   39:   40   17:   18
         618       1:   60   39:   40   19:   20
         619       1:   60   39:   40   21:   22
         620       1:   60   39:   40   23:   24
         621       1:   60   39:   40   25:   26
         622       1:   60   39:   40   27:   28
         623       1:   60   39:   40   29:   30
         624       1:   60   39:   40   31:   32
         625       1:   60   39:   40   33:   34
         626       1:   60   39:   40   35:   36
         627       1:   60   39:   40   37:   38
         628       1:   60   39:   40   39:   40
         629       1:   60   39:   40   41:   42
         630       1:   60   39:   40   43:   44
         631       1:   60   39:   40   45:   46
         632       1:   60   39:   40   47:   48
         633       1:   60   39:   40   49:   50
         634       1:   60   39:   40   51:   52
         635       1:   60   39:   40   53:   54
         636       1:   60   39:   40   55:   56
         637       1:   60   39:   40   57:   57
         638       1:   60   39:   40   58:   58
         639       1:   60   39:   40   59:   59
         640       1:   60   39:   40   60:   60
         641       1:   60   41:   42    1:    2
         642       1:   60   41:   42    3:    4
         643       1:   60   41:   42    5:    6
         644       1:   60   41:   42    7:    8
         645       1:   60   41:   42    9:   10
         646       1:   60   41:   42   11:   12
         647       1:   60   41:   42   13:   14
         648       1:   60   41:   42   15:   16
         649       1:   60   41:   42   17:   18
         650       1:   60   41:   42   19:   20
         651       1:   60   41:   42   21:   22
         652       1:   60   41:   42   23:   24
         653       1:   60   41:   42   25:   26
         654       1:   60   41:   42   27:   28
         655       1:   60   41:   42   29:   30
         656       1:   60   41:   42   31:   32
         657       1:   60   41:   42   33:   34
         658       1:   60   41:   42   35:   36
         659       1:   60   41:   42   37:   38
         660       1:   60   41:   42   39:   40
         661       1:   60   41:   42   41:   42
         662       1:   60   41:   42   43:   44
         663       1:   60   41:   42   45:   46
         664       1:   60   41:   42   47:   48
         665       1:   60   41:   42   49:   50
         666       1:   60   41:   42   51:   52
         667       1:   60   41:   42   53:   54
         668       1:   60   41:   42   55:   56
         669       1:   60   41:   42   57:   57
         670       1:   60   41:   42   58:   58
         671       1:   60   41:   42   59:   59
         672       1:   60   41:   42   60:   60
         673       1:   60   43:   44    1:    2
         674       1:   60   43:   44    3:    4
         675       1:   60   43:   44    5:    6
         676       1:   60   43:   44    7:    8
         677       1:   60   43:   44    9:   10
         678       1:   60   43:   44   11:   12
         679       1:   60   43:   44   13:   14
         680       1:   60   43:   44   15:   16
         681       1:   60   43:   44   17:   18
         682       1:   60   43:   44   19:   20
         683       1:   60   43:   44   21:   22
         684       1:   60   43:   44   23:   24
         685       1:   60   43:   44   25:   26
         686       1:   60   43:   44   27:   28
         687       1:   60   43:   44   29:   30
         688       1:   60   43:   44   31:   32
         689       1:   60   43:   44   33:   34
         690       1:   60   43:   44   35:   36
         691       1:   60   43:   44   37:   38
         692       1:   60   43:   44   39:   40
         693       1:   60   43:   44   41:   42
         694       1:   60   43:   44   43:   44
         695       1:   60   43:   44   45:   46
         696       1:   60   43:   44   47:   48
         697       1:   60   43:   44   49:   50
         698       1:   60   43:   44   51:   52
         699       1:   60   43:   44   53:   54
         700       1:   60   43:   44   55:   56
         701       1:   60   43:   44   57:   57
         702       1:   60   43:   44   58:   58
         703       1:   60   43:   44   59:   59
         704       1:   60   43:   44   60:   60
         705       1:   60   45:   46    1:    2
         706       1:   60   45:   46    3:    4
         707       1:   60   45:   46    5:    6
         708       1:   60   45:   46    7:    8
         709       1:   60   45:   46    9:   10
         710       1:   60   45:   46   11:   12
         711       1:   60   45:   46   13:   14
         712       1:   60   45:   46   15:   16
         713       1:   60   45:   46   17:   18
         714       1:   60   45:   46   19:   20
         715       1:   60   45:   46   21:   22
         716       1:   60   45:   46   23:   24
         717       1:   60   45:   46   25:   26
         718       1:   60   45:   46   27:   28
         719       1:   60   45:   46   29:   30
         720       1:   60   45:   46   31:   32
         721       1:   60   45:   46   33:   34
         722       1:   60   45:   46   35:   36
         723       1:   60   45:   46   37:   38
         724       1:   60   45:   46   39:   40
         725       1:   60   45:   46   41:   42
         726       1:   60   45:   46   43:   44
         727       1:   60   45:   46   45:   46
         728       1:   60   45:   46   47:   48
         729       1:   60   45:   46   49:   50
         730       1:   60   45:   46   51:   52
         731       1:   60   45:   46   53:   54
         732       1:   60   45:   46   55:   56
         733       1:   60   45:   46   57:   57
         734       1:   60   45:   46   58:   58
         735       1:   60   45:   46   59:   59
         736       1:   60   45:   46   60:   60
         737       1:   60   47:   48    1:    2
         738       1:   60   47:   48    3:    4
         739       1:   60   47:   48    5:    6
         740       1:   60   47:   48    7:    8
         741       1:   60   47:   48    9:   10
         742       1:   60   47:   48   11:   12
         743       1:   60   47:   48   13:   14
         744       1:   60   47:   48   15:   16
         745       1:   60   47:   48   17:   18
         746       1:   60   47:   48   19:   20
         747       1:   60   47:   48   21:   22
         748       1:   60   47:   48   23:   24
         749       1:   60   47:   48   25:   26
         750       1:   60   47:   48   27:   28
         751       1:   60   47:   48   29:   30
         752       1:   60   47:   48   31:   32
         753       1:   60   47:   48   33:   34
         754       1:   60   47:   48   35:   36
         755       1:   60   47:   48   37:   38
         756       1:   60   47:   48   39:   40
         757       1:   60   47:   48   41:   42
         758       1:   60   47:   48   43:   44
         759       1:   60   47:   48   45:   46
         760       1:   60   47:   48   47:   48
         761       1:   60   47:   48   49:   50
         762       1:   60   47:   48   51:   52
         763       1:   60   47:   48   53:   54
         764       1:   60   47:   48   55:   56
         765       1:   60   47:   48   57:   57
         766       1:   60   47:   48   58:   58
         767       1:   60   47:   48   59:   59
         768       1:   60   47:   48   60:   60
         769       1:   60   49:   50    1:    2
         770       1:   60   49:   50    3:    4
         771       1:   60   49:   50    5:    6
         772       1:   60   49:   50    7:    8
         773       1:   60   49:   50    9:   10
         774       1:   60   49:   50   11:   12
         775       1:   60   49:   50   13:   14
         776       1:   60   49:   50   15:   16
         777       1:   60   49:   50   17:   18
         778       1:   60   49:   50   19:   20
         779       1:   60   49:   50   21:   22
         780       1:   60   49:   50   23:   24
         781       1:   60   49:   50   25:   26
         782       1:   60   49:   50   27:   28
         783       1:   60   49:   50   29:   30
         784       1:   60   49:   50   31:   32
         785       1:   60   49:   50   33:   34
         786       1:   60   49:   50   35:   36
         787       1:   60   49:   50   37:   38
         788       1:   60   49:   50   39:   40
         789       1:   60   49:   50   41:   42
         790       1:   60   49:   50   43:   44
         791       1:   60   49:   50   45:   46
         792       1:   60   49:   50   47:   48
         793       1:   60   49:   50   49:   50
         794       1:   60   49:   50   51:   52
         795       1:   60   49:   50   53:   54
         796       1:   60   49:   50   55:   56
         797       1:   60   49:   50   57:   57
         798       1:   60   49:   50   58:   58
         799       1:   60   49:   50   59:   59
         800       1:   60   49:   50   60:   60
         801       1:   60   51:   52    1:    2
         802       1:   60   51:   52    3:    4
         803       1:   60   51:   52    5:    6
         804       1:   60   51:   52    7:    8
         805       1:   60   51:   52    9:   10
         806       1:   60   51:   52   11:   12
         807       1:   60   51:   52   13:   14
         808       1:   60   51:   52   15:   16
         809       1:   60   51:   52   17:   18
         810       1:   60   51:   52   19:   20
         811       1:   60   51:   52   21:   22
         812       1:   60   51:   52   23:   24
         813       1:   60   51:   52   25:   26
         814       1:   60   51:   52   27:   28
         815       1:   60   51:   52   29:   30
         816       1:   60   51:   52   31:   32
         817       1:   60   51:   52   33:   34
         818       1:   60   51:   52   35:   36
         819       1:   60   51:   52   37:   38
         820       1:   60   51:   52   39:   40
         821       1:   60   51:   52   41:   42
         822       1:   60   51:   52   43:   44
         823       1:   60   51:   52   45:   46
         824       1:   60   51:   52   47:   48
         825       1:   60   51:   52   49:   50
         826       1:   60   51:   52   51:   52
         827       1:   60   51:   52   53:   54
         828       1:   60   51:   52   55:   56
         829       1:   60   51:   52   57:   57
         830       1:   60   51:   52   58:   58
         831       1:   60   51:   52   59:   59
         832       1:   60   51:   52   60:   60
         833       1:   60   53:   54    1:    2
         834       1:   60   53:   54    3:    4
         835       1:   60   53:   54    5:    6
         836       1:   60   53:   54    7:    8
[...]
siesta:    180   -1.740029   -0.569927   -0.168062
siesta:    181    1.161674   -0.120648    1.234799
siesta:    182   -0.440239   -0.626589    0.290949
siesta:    183   -0.786741    0.548066   -1.016071
siesta:    184    0.192351   -0.204132   -1.003964
siesta:    185   -0.243492   -0.707248    0.250368
siesta:    186    0.280287    1.131521    0.720633
siesta:    187    0.699981   -1.167720   -2.034667
siesta:    188    0.447454    0.854631    0.556325
siesta:    189   -0.766277    0.271082    1.215707
siesta:    190    0.621525    1.217342   -0.293499
siesta:    191   -1.433284   -1.345833   -0.627059
siesta:    192    0.572475   -0.038013    1.091911
siesta:    193   -0.906992   -0.417543    0.938140
siesta:    194    0.768220    0.856842    0.041128
siesta:    195    0.625532   -0.482385   -0.992091
siesta:    196    0.278792    0.381973    1.105649
siesta:    197   -0.897370    0.031641   -0.436591
siesta:    198    0.727021   -0.469459   -0.384484
siesta:    199    0.475165   -1.563520    0.965391
siesta:    200    0.187964    0.660944    0.317892
siesta:    201   -0.694579    0.614892   -0.985015
siesta:    202   -0.924461   -0.167336    1.240251
siesta:    203   -0.691517   -0.000683   -0.543876
siesta:    204    1.430740    0.430318   -0.452266
siesta:    205    1.666953    0.384234   -0.543665
siesta:    206   -0.399420    0.533246    0.861693
siesta:    207   -0.974095   -0.664532   -0.559974
siesta:    208    0.303460   -1.552822    0.939408
siesta:    209    0.059420    1.603875   -0.158321
siesta:    210   -0.457409   -0.350574   -1.059985
siesta:    211    0.918704   -0.517614   -0.467201
siesta:    212   -0.191734    0.298886   -0.693009
siesta:    213   -1.176525    0.328276    1.238031
siesta:    214   -1.613897    1.316052   -0.210415
siesta:    215    1.313741    0.467143    0.994385
siesta:    216    0.058989   -1.299224   -0.108679
siesta:    217   -0.851837   -1.394918   -0.747968
siesta:    218   -0.029393   -0.141527    1.267595
siesta:    219    0.728417    1.262863   -0.330009
siesta:    220    1.282150   -0.868359    0.355723
siesta:    221   -0.108487    1.185622   -0.005095
siesta:    222   -0.976807   -0.547123   -0.376992
siesta:    223   -0.301214    1.380589   -0.053183
siesta:    224   -0.201569   -1.662178    1.125169
siesta:    225    0.297640   -0.189180   -1.033099
siesta:    226    0.180448    0.631383    1.272746
siesta:    227    0.556786   -0.707533   -0.528268
siesta:    228   -1.273734   -0.590868   -0.879180
siesta:    229    1.345172    1.087859   -0.644173
siesta:    230    0.057016   -0.727820    1.346290
siesta:    231   -1.126139   -0.429043   -0.574822
siesta:    232    0.906581    0.459014   -0.967490
siesta:    233   -1.168664   -0.120674    0.930290
siesta:    234    0.351463   -0.919290    0.009379
siesta:    235   -0.659208   -0.418718    0.607832
siesta:    236   -0.286651    0.739924   -0.768233
siesta:    237    0.928695   -0.152041    0.115021
siesta:    238    0.682983   -0.247863   -0.048451
siesta:    239   -0.062244   -0.395696    0.663569
siesta:    240   -0.058331    0.762384   -0.043938
siesta:    241   -0.724974   -0.769183   -0.246612
siesta:    242    1.195292   -0.052707   -0.441606
siesta:    243   -0.645800    1.137654    0.327909
siesta:    244    0.051018   -0.110561    0.711103
siesta:    245   -0.257031    0.661722   -0.010917
siesta:    246   -0.220482   -0.651402   -0.951102
siesta:    247    1.581078    0.304916   -1.171395
siesta:    248   -0.196404   -1.201923    0.294438
siesta:    249   -1.366301    0.631296    0.963804
siesta:    250    1.451863    0.543994    0.571660
siesta:    251    0.166873    0.042360   -1.070711
siesta:    252   -1.489507   -0.534638    0.164976
siesta:    253   -0.913811    0.888933   -1.842350
siesta:    254   -0.274088   -0.511748    1.385262
siesta:    255    1.427459   -0.097253    0.548662
siesta:    256    1.121462    0.567206   -0.401083
siesta:    257   -0.491481   -1.222194   -0.578122
siesta:    258   -0.912028    0.047722    0.917443
siesta:    259    0.879035    0.822852   -0.504561
siesta:    260   -0.304608   -0.872319   -0.169781
siesta:    261   -0.870404    0.029489    0.484365
siesta:    262   -0.312402   -1.230426   -0.072065
siesta:    263   -0.286541    0.582908   -0.301516
siesta:    264    0.864801    0.785187    0.423009
siesta:    265    1.735465    0.514973    0.630751
siesta:    266    0.383537   -0.001336   -0.823204
siesta:    267   -1.693368   -0.343214   -0.324402
siesta:    268   -1.025279    0.153302   -0.012129
siesta:    269    0.971374   -0.235035   -0.167821
siesta:    270    0.017656    0.212670   -0.092192
siesta:    271    0.557102    0.020169    1.205264
siesta:    272    0.624432    0.699767   -0.418450
siesta:    273   -1.195422   -0.713728   -1.096553
siesta:    274    1.340428   -0.152945   -0.308791
siesta:    275   -0.545872   -0.059843   -0.481372
siesta:    276   -0.705529    0.347046    0.826697
siesta:    277   -1.094174    0.923224   -0.928518
siesta:    278    0.608686    0.720723    0.763954
siesta:    279    0.403434   -0.958546   -0.064636
siesta:    280   -1.353615   -0.480208   -0.318675
siesta:    281    0.648711    0.472627   -1.138898
siesta:    282    0.788752    0.177190    1.670248
siesta:    283    0.590168   -0.678132   -1.314728
siesta:    284    0.646287   -0.405862    0.360037
siesta:    285   -1.017797    0.735039    0.665159
siesta:    286    1.055890   -0.178995   -0.649215
siesta:    287   -1.014042   -0.838903   -0.071658
siesta:    288   -0.102010    0.922556    0.827571
siesta:    289    1.147637    0.596598    0.562535
siesta:    290   -0.938063    0.304068   -1.049613
siesta:    291    0.238673   -0.670395    0.340074
siesta:    292    0.926081   -0.923219    1.219333
siesta:    293    0.716251    0.070018   -1.109081
siesta:    294   -1.523495    0.625860   -0.660851
siesta:    295   -0.001374   -0.126000    0.869735
siesta:    296   -0.293699    0.455679   -0.820512
siesta:    297    0.059077   -0.583253    0.027476
siesta:    298   -0.653953   -0.316983    0.990651
siesta:    299    0.120155    0.540047   -0.296736
siesta:    300    0.538496   -0.462430   -0.754063
siesta:    301   -0.282220    1.505542    1.226482
siesta:    302   -0.705724   -0.076132   -0.716520
siesta:    303    0.552267   -0.963730   -0.735229
siesta:    304   -1.127414   -0.448896   -0.546337
siesta:    305   -0.143989    0.371985    0.583727
siesta:    306    1.276875    0.096495    0.018643
siesta:    307   -0.514585   -0.737482   -0.977185
siesta:    308    1.189777    0.824471    0.638605
siesta:    309   -0.844742   -0.000297    0.031322
siesta:    310    0.134558    0.855870    1.327203
siesta:    311    0.829298   -0.225554    0.112855
siesta:    312   -0.723639   -0.618641   -1.384045
siesta:    313   -0.191035    0.372105    1.445114
siesta:    314   -0.073750   -0.726644   -0.432157
siesta:    315    0.032602    0.628935   -0.911854
siesta:    316    0.452092   -1.297795   -0.283255
siesta:    317   -1.215826   -0.306904    0.338710
siesta:    318    0.325691    1.468874   -0.212997
siesta:    319    0.555966    0.604669    0.925069
siesta:    320   -0.538071   -0.674057   -0.753156
siesta:    321    0.324202    0.229197   -0.425000
siesta:    322    1.004821   -0.844176   -1.549534
siesta:    323   -0.758035    1.365873   -0.025039
siesta:    324   -0.547131   -0.178134    1.450900
siesta:    325    0.114350    1.142708    0.707854
siesta:    326    0.334904   -1.072452   -0.698601
siesta:    327   -0.711124   -0.091994   -0.129656
siesta:    328   -0.882188   -1.955583    0.701663
siesta:    329    0.778865    0.901838    0.903277
siesta:    330    0.442440    0.467285   -1.420781
siesta:    331   -0.794315   -1.417883   -0.486671
siesta:    332   -0.533094    0.673058   -0.127491
siesta:    333    0.662382    0.268295    1.031823
siesta:    334    0.867066    0.157819    1.585466
siesta:    335   -0.219961   -0.811478   -0.757245
siesta:    336   -0.597228    0.413648   -0.249244
siesta:    337    0.908353    1.335615   -0.526377
siesta:    338   -0.272840   -0.901974    0.812322
siesta:    339   -0.417264    0.324504   -0.463658
siesta:    340    1.090170   -0.280711   -0.628027
siesta:    341   -0.505466    0.487532   -0.373302
siesta:    342   -0.600398   -0.305140    1.070198
siesta:    343    2.472826    0.665977   -0.005247
siesta:    344   -0.502621   -0.078830    1.356808
siesta:    345   -1.875654   -0.793778   -1.062614
siesta:    346    1.773312   -1.205871    0.918801
siesta:    347   -1.405642    0.770944    0.160728
siesta:    348    0.406084    0.191735   -0.941596
siesta:    349   -0.572737    0.100220   -0.374429
siesta:    350   -0.050348    0.579891    0.567605
siesta:    351    0.736602   -0.965632    0.570558
siesta:    352   -0.287616   -1.309356    0.492024
siesta:    353   -0.459021    0.535418    0.620225
siesta:    354    1.062915    0.929949   -1.169946
siesta:    355   -0.420542   -1.048030   -0.325047
siesta:    356    0.739698    0.370697    0.489040
siesta:    357   -0.600736    0.507902   -0.589294
siesta:    358   -1.521051   -0.064855    0.928908
siesta:    359   -0.308087    0.108992   -0.898238
siesta:    360    1.876729   -0.041597   -0.066543
siesta:    361    1.080338   -0.284569    1.155356
siesta:    362   -0.901325   -0.534710   -0.563191
siesta:    363   -0.107378    1.213542   -0.120958
siesta:    364    0.655814    1.569210   -1.229701
siesta:    365   -0.354419   -0.258064   -0.719491
siesta:    366   -0.397158   -1.494371    1.306226
siesta:    367   -0.634450   -0.513860   -1.503634
siesta:    368    1.130567   -0.238527    1.455098
siesta:    369   -0.469901    0.918949    0.001200
siesta:    370    1.364260   -0.295412    0.604650
siesta:    371   -1.784762    0.043232    0.676602
siesta:    372    0.386492    0.463017   -1.105297
siesta:    373    0.777301    0.820224    1.962907
siesta:    374   -0.334833   -1.282567   -0.608600
siesta:    375   -0.956574    0.648240   -0.841543
siesta:    376    0.509174    0.214457    0.777949
siesta:    377   -0.791699    0.275985   -0.470267
siesta:    378    0.612776   -0.009045   -0.758654
siesta:    379    1.220165    0.716471   -1.161151
siesta:    380    0.756563   -0.859258   -0.112560
siesta:    381   -1.444194   -0.075470    1.260912
siesta:    382    0.553663    1.175768   -0.461625
siesta:    383   -0.818472    0.046302    1.199915
siesta:    384    0.028848   -1.430432   -0.456183
siesta: ----------------------------------------
siesta:    Tot    0.138956   -0.065836    0.070294

siesta: Stress tensor (static) (eV/Ang**3):
siesta:    -0.029787   -0.001837   -0.000488
siesta:    -0.001837   -0.031920   -0.000014
siesta:    -0.000488   -0.000014   -0.030882

siesta: Cell volume =       3830.132654 Ang**3

siesta: Pressure (static):
siesta:                Solid            Molecule  Units
siesta:           0.00033613          0.00005830  Ry/Bohr**3
siesta:           0.03086275          0.00535334  eV/Ang**3
siesta:          49.44811831          8.57709112  kBar
(Free)E+ p_basis*V_orbitals  =      -60135.710895
(Free)Eharris+ p_basis*V_orbitals  =      -60135.710896
>> End of run:   5-MAY-2017  19:36:04
************************************************************************************************************************
***             WIDEN YOUR WINDOW TO 120 CHARACTERS.  Use 'enscript -r -fCourier9' to print this document            ***
************************************************************************************************************************

---------------------------------------------- PETSc Performance Summary: ----------------------------------------------

/home/keceli/siesta-qetsc/arch-theta-opt-cray/siesta on a arch-theta-opt-cray named nid00640 with 1024 processors, by keceli Fri May  5 19:36:04 2017
Using Petsc Development GIT revision: v3.7.4-1993-gc616f45  GIT Date: 2016-11-19 14:30:01 -0600

                         Max       Max/Min        Avg      Total 
Time (sec):           1.235e+02      1.00008   1.234e+02
Objects:              1.000e+00      1.00000   1.000e+00
Flops:                0.000e+00      0.00000   0.000e+00  0.000e+00
Flops/sec:            0.000e+00      0.00000   0.000e+00  0.000e+00
MPI Messages:         0.000e+00      0.00000   0.000e+00  0.000e+00
MPI Message Lengths:  0.000e+00      0.00000   0.000e+00  0.000e+00
MPI Reductions:       1.000e+00      1.00000

Flop counting convention: 1 flop = 1 real number operation of type (multiply/divide/add/subtract)
                            e.g., VecAXPY() for real vectors of length N --> 2N flops
                            and VecAXPY() for complex vectors of length N --> 8N flops

Summary of Stages:   ----- Time ------  ----- Flops -----  --- Messages ---  -- Message Lengths --  -- Reductions --
                        Avg     %Total     Avg     %Total   counts   %Total     Avg         %Total   counts   %Total 
 0:      Main Stage: 2.9491e-04   0.0%  0.0000e+00   0.0%  0.000e+00   0.0%  0.000e+00        0.0%  0.000e+00   0.0% 
 1:     siesta_init: 5.1298e+00   4.2%  0.0000e+00   0.0%  0.000e+00   0.0%  0.000e+00        0.0%  0.000e+00   0.0% 
 2:   siesta_forces: 1.6291e+01  13.2%  0.0000e+00   0.0%  0.000e+00   0.0%  0.000e+00        0.0%  0.000e+00   0.0% 
 3:    siesta_solve: 9.5611e+01  77.5%  0.0000e+00   0.0%  0.000e+00   0.0%  0.000e+00        0.0%  0.000e+00   0.0% 
10:     siesta_misc: 3.3184e+00   2.7%  0.0000e+00   0.0%  0.000e+00   0.0%  0.000e+00        0.0%  0.000e+00   0.0% 
11:     siesta_move: 3.1284e-04   0.0%  0.0000e+00   0.0%  0.000e+00   0.0%  0.000e+00        0.0%  0.000e+00   0.0% 
12: siesta_analysis: 1.3616e-03   0.0%  0.0000e+00   0.0%  0.000e+00   0.0%  0.000e+00        0.0%  0.000e+00   0.0% 
13:     qetsc_clean: 3.5127e-06   0.0%  0.0000e+00   0.0%  0.000e+00   0.0%  0.000e+00        0.0%  0.000e+00   0.0% 
14:      siesta_end: 3.0946e+00   2.5%  0.0000e+00   0.0%  0.000e+00   0.0%  0.000e+00        0.0%  0.000e+00   0.0% 

------------------------------------------------------------------------------------------------------------------------
See the 'Profiling' chapter of the users' manual for details on interpreting output.
Phase summary info:
   Count: number of times phase was executed
   Time and Flops: Max - maximum over all processors
                   Ratio - ratio of maximum to minimum over all processors
   Mess: number of messages sent
   Avg. len: average message length (bytes)
   Reduct: number of global reductions
   Global: entire computation
   Stage: stages of a computation. Set stages with PetscLogStagePush() and PetscLogStagePop().
      %T - percent time in this phase         %F - percent flops in this phase
      %M - percent messages in this phase     %L - percent message lengths in this phase
      %R - percent reductions in this phase
   Total Mflop/s: 10e-6 * (sum of flops over all processors)/(max time over all processors)
------------------------------------------------------------------------------------------------------------------------
Event                Count      Time (sec)     Flops                             --- Global ---  --- Stage ---   Total
                   Max Ratio  Max     Ratio   Max  Ratio  Mess   Avg len Reduct  %T %F %M %L %R  %T %F %M %L %R Mflop/s
------------------------------------------------------------------------------------------------------------------------

--- Event Stage 0: Main Stage


--- Event Stage 1: siesta_init


--- Event Stage 2: siesta_forces


--- Event Stage 3: siesta_solve


--- Event Stage 4: Unknown


--- Event Stage 5: Unknown


--- Event Stage 6: Unknown


--- Event Stage 7: Unknown


--- Event Stage 8: Unknown


--- Event Stage 9: Unknown


--- Event Stage 10: siesta_misc


--- Event Stage 11: siesta_move


--- Event Stage 12: siesta_analysis


--- Event Stage 13: qetsc_clean


--- Event Stage 14: siesta_end

------------------------------------------------------------------------------------------------------------------------

Memory usage is given in bytes:

Object Type          Creations   Destructions     Memory  Descendants' Mem.
Reports information only for process 0.

--- Event Stage 0: Main Stage


--- Event Stage 1: siesta_init


--- Event Stage 2: siesta_forces


--- Event Stage 3: siesta_solve


--- Event Stage 4: Unknown


--- Event Stage 5: Unknown


--- Event Stage 6: Unknown


--- Event Stage 7: Unknown


--- Event Stage 8: Unknown


--- Event Stage 9: Unknown


--- Event Stage 10: siesta_misc


--- Event Stage 11: siesta_move


--- Event Stage 12: siesta_analysis


--- Event Stage 13: qetsc_clean


--- Event Stage 14: siesta_end

              Viewer     1              0            0     0.
========================================================================================================================
Average time to get PetscTime(): 4.05312e-07
Average time for MPI_Barrier(): 0.000375557
Average time for zero size MPI_Send(): 3.9998e-06
#PETSc Option Table entries:
-eps_interval -2.3,0.
-eps_krylovschur_detect_zeros 0
-eps_krylovschur_partitions 64
-ioptbin 7
-ioptdensity 0
-ioptinertia 1
-ioptleft 2
-ioptwrite 1
-log_view
-mat_mumps_icntl_23 0
-mat_mumps_icntl_7 5
-mat_type mpisbaij
#End of PETSc Option Table entries
Compiled without FORTRAN kernels
Compiled with full precision matrices (default)
sizeof(short) 2 sizeof(int) 4 sizeof(long) 8 sizeof(void*) 8 sizeof(PetscScalar) 8 sizeof(PetscInt) 4
Configure options: --known-level1-dcache-size=32768 --known-level1-dcache-linesize=64 --known-level1-dcache-assoc=8 --known-sizeof-char=1 --known-sizeof-void-p=8 --known-sizeof-short=2 --known-sizeof-int=4 --known-sizeof-long=8 --known-sizeof-long-long=8 --known-sizeof-float=4 --known-sizeof-double=8 --known-sizeof-size_t=8 --known-bits-per-byte=8 --known-memcmp-ok=1 --known-sizeof-MPI_Comm=4 --known-sizeof-MPI_Fint=4 --known-mpi-long-double=1 --known-mpi-int64_t=1 --known-mpi-c-double-complex=1 --known-sdot-returns-double=0 --known-snrm2-returns-double=0 --known-has-attribute-aligned=1 PETSC_ARCH=arch-theta-opt-cray --with-cc=cc --with-cxx=CC --with-fc=ftn --with-mpiexec=mpirun COPTFLAGS="-g -O3 -fp-model fast -xMIC-AVX512" CXXOPTFLAGS="-g -O3 -fp-model fast -xMIC-AVX512" FOPTFLAGS="-g -O3 -fp-model fast -xMIC-AVX512" --with-batch=1 known-mpi-shared-libraries=1 --with-debugging=0 --with-clib-autodetect=0 --with-fortranlib-autodetect=0 --with-cxxlib-autodetect=0 LIBS=-lstdc++ --download-metis=1 --download-mumps=1 --download-parmetis=1 --download-parms=0 --download-ptscotch=1 --download-ptscotch-commit=HEAD --download-scalapack=1 --with-memalign=64
-----------------------------------------
Libraries compiled on Thu May  4 04:27:34 2017 on thetalogin4 
Machine characteristics: Linux-3.12.60-52.63.1.12215.0.PTF.1017941-default-x86_64-with-SuSE-12-x86_64
Using PETSc directory: /home/keceli/petsc
Using PETSc arch: arch-theta-opt-cray
-----------------------------------------

Using C compiler: cc   -g -O3 -fp-model fast -xMIC-AVX512  ${COPTFLAGS} ${CFLAGS}
Using Fortran compiler: ftn  -g -O3 -fp-model fast -xMIC-AVX512   ${FOPTFLAGS} ${FFLAGS} 
-----------------------------------------

Using include paths: -I/home/keceli/petsc/arch-theta-opt-cray/include -I/home/keceli/petsc/include -I/home/keceli/petsc/include -I/home/keceli/petsc/arch-theta-opt-cray/include
-----------------------------------------

Using C linker: cc
Using Fortran linker: ftn
Using libraries: -Wl,-rpath,/home/keceli/petsc/arch-theta-opt-cray/lib -L/home/keceli/petsc/arch-theta-opt-cray/lib -lpetsc -Wl,-rpath,/home/keceli/petsc/arch-theta-opt-cray/lib -L/home/keceli/petsc/arch-theta-opt-cray/lib -lcmumps -ldmumps -lsmumps -lzmumps -lmumps_common -lpord -lscalapack -lparmetis -lmetis -lptesmumps -lptscotch -lptscotcherr -lscotch -lscotcherr -lrt -lm -lpthread -lz -ldl -lstdc++
-----------------------------------------

Application 3288243 resources: utime ~122850s, stime ~3338s, Rss ~110524, inblocks ~0, outblocks ~0
