s.writesiestasub: Submission time = 04s07m17h
s.writesiestasub: Job name = qp256_s64_n64_c64_theta
s.writesiestasub: Number of nodes = 64
s.writesiestasub: Number of cores = 4096
s.writesiestasub: Number of cores/node = 64
s.writesiestasub: Number of slices = 64
s.writesiestasub: Mapping = ABCDET
04s07m17h
#QETSc options
-ioptbin 7
-ioptdensity 0
-ioptinertia 0
-ioptleft 2
-ioptwrite 1 
#-roptbuffer 0.01
#-roptdiff 0.02

#PETSc options
-mat_type mpisbaij
-log_view
#-mat_view
#-memory_view
#-mat_mumps_icntl_13 1 #turn off scaLAPACK for matrix inertia
#-mat_mumps_icntl_24 1 #null pivot row detection for matrix inertia
-mat_mumps_icntl_23 0
-mat_mumps_icntl_28 1 # serial analysis
#-mat_mumps_icntl_28 2 #parallel analysis
#-mat_mumps_icntl_29 1 #ptscotch
#-mat_mumps_icntl_29 2 #parmetis
-mat_mumps_icntl_7 5 #metis
#-malloc_info 
#-mat_view ::ascii_info 
#-mat_getrow_uppertriangular 1
#-st_type sinvert 
#-st_ksp_type preonly 
#-st_pc_type cholesky 
#-st_pc_factor_mat_solver_package mumps 

#SLEPc options

#-eps_krylovschur_partitions 1  
-eps_interval -2.3,0.2
#-eps_tol  1.e-8
-eps_krylovschur_detect_zeros 0
#-eps_purify 1
SystemName          polyethylene
SystemLabel         polyethylene
NumberOfAtoms       6
NumberOfSpecies     2
NumberOfEigenStates 1536 
%block ChemicalSpeciesLabel
 1  6  C
 2  1  H
%endblock ChemicalSpeciesLabel

DM.MixingWeight 0.3
DM.NumberPulay 3
#BlockSize 23
SolutionMethod  qetsc
WriteDM .false.
WriteDM.NetCDF .false.
WriteDMHS.NetCDF .false.
LongOutput .false.
#MaxSCFIterations 1

PAO.BasisType split
PAO.BasisSize DZP

LatticeConstant 1.00 Ang
%block LatticeVectors
20.000  0.000  0.000
 0.000 20.000  0.000
 0.000  0.000  2.572
%endblock LatticeVectors

%block kgrid_Monkhorst_Pack
1 0 0 0.0
0 1 0 0.0
0 0 1 0.0
%endblock kgrid_Monkhorst_Pack

%block SuperCell
1 0 0
0 1 0
0 0 256
%endblock SuperCell

AtomicCoordinatesFormat Ang
%block AtomicCoordinatesAndAtomicSpecies
  0.31237500000000001       0.28138740000000001       0.64300000000000002     1
   1.3964999999999999        7.3970400000000006E-002  0.64300000000000002     2
  0.21462000000000001        1.3794480000000002       0.64300000000000002     2
 -0.31237500000000001      -0.28138740000000001      -0.64300000000000002     1
  -1.3964999999999999       -7.3970400000000006E-002 -0.64300000000000002     2
 -0.21462000000000001       -1.3794480000000002      -0.64300000000000002     2
%endblock AtomicCoordinatesAndAtomicSpecies
Siesta Version: siesta-trunk-492
Architecture  : x86_64-unknown-linux-gnu--unknown
Compiler flags: ftn -g -O3 -fp-model fast -xMIC-AVX512  -I/home/keceli/petsc/include -I/home//keceli/petsc/arch-theta-opt-cray/include -I/home/keceli/slepcfork/arch-theta-opt-cray/include -I/home/keceli/slepcfork/arch-theta-opt-cray/include -I/home/keceli/slepcfork/include
PP flags      : -DMPI -DFC_HAVE_FLUSH -DFC_HAVE_ABORT 
PARALLEL version

* Running on 4096 nodes in parallel
>> Start of run:   5-MAY-2017  17:08:10

                           ***********************       
                           *  WELCOME TO SIESTA  *       
                           ***********************       
WARNING: Siesta is reading its input from file INPUT_DEBUG

reinit: -----------------------------------------------------------------------
reinit: System Name: polyethylene
reinit: -----------------------------------------------------------------------
reinit: System Label: polyethylene                                                
reinit: -----------------------------------------------------------------------

initatom: Reading input for the pseudopotentials and atomic orbitals ----------
Species number:   1 Atomic number:    6 Label: C
Species number:   2 Atomic number:    1 Label: H
 
Ground state valence configuration:   2s02  2p02
Reading pseudopotential information in formatted form from C.psf

Valence configuration for pseudopotential generation:
2s( 2.00) rc: 1.54
2p( 2.00) rc: 1.54
3d( 0.00) rc: 1.54
4f( 0.00) rc: 1.54
Ground state valence configuration:   1s01
Reading pseudopotential information in formatted form from H.psf

Valence configuration for pseudopotential generation:
1s( 1.00) rc: 1.31
2p( 0.00) rc: 1.31
3d( 0.00) rc: 0.37
4f( 0.00) rc: 1.31
For C, standard SIESTA heuristics set lmxkb to 3
 (one more than the basis l, including polarization orbitals).
Use PS.lmax or PS.KBprojectors blocks to override.
For H, standard SIESTA heuristics set lmxkb to 2
 (one more than the basis l, including polarization orbitals).
Use PS.lmax or PS.KBprojectors blocks to override.

<basis_specs>
===============================================================================
C                    Z=   6    Mass=  12.010        Charge= 0.17977+309
Lmxo=1 Lmxkb= 3    BasisType=split      Semic=F
L=0  Nsemic=0  Cnfigmx=2
          n=1  nzeta=2  polorb=0
            splnorm:   0.15000    
               vcte:    0.0000    
               rinn:    0.0000    
               qcoe:    0.0000    
               qyuk:    0.0000    
               qwid:   0.10000E-01
                rcs:    0.0000      0.0000    
            lambdas:    1.0000      1.0000    
L=1  Nsemic=0  Cnfigmx=2
          n=1  nzeta=2  polorb=1
            splnorm:   0.15000    
               vcte:    0.0000    
               rinn:    0.0000    
               qcoe:    0.0000    
               qyuk:    0.0000    
               qwid:   0.10000E-01
                rcs:    0.0000      0.0000    
            lambdas:    1.0000      1.0000    
-------------------------------------------------------------------------------
L=0  Nkbl=1  erefs: 0.17977+309
L=1  Nkbl=1  erefs: 0.17977+309
L=2  Nkbl=1  erefs: 0.17977+309
L=3  Nkbl=1  erefs: 0.17977+309
===============================================================================
</basis_specs>

atom: Called for C                     (Z =   6)

read_vps: Pseudopotential generation method:
read_vps: ATM3      Troullier-Martins                       
Total valence charge:    4.00000

xc_check: Exchange-correlation functional:
xc_check: Ceperley-Alder
V l=0 = -2*Zval/r beyond r=  1.5227
V l=1 = -2*Zval/r beyond r=  1.5227
V l=2 = -2*Zval/r beyond r=  1.5227
V l=3 = -2*Zval/r beyond r=  1.5038
All V_l potentials equal beyond r=  1.5227
This should be close to max(r_c) in ps generation
All pots = -2*Zval/r beyond r=  1.5227

VLOCAL1: 99.0% of the norm of Vloc inside     18.722 Ry
VLOCAL1: 99.9% of the norm of Vloc inside     42.668 Ry
atom: Maximum radius for 4*pi*r*r*local-pseudopot. charge    1.83678
atom: Maximum radius for r*vlocal+2*Zval:    1.58088
GHOST: No ghost state for L =  0
GHOST: No ghost state for L =  1
GHOST: No ghost state for L =  2
GHOST: No ghost state for L =  3

KBgen: Kleinman-Bylander projectors: 
   l= 0   rc=  1.747182   el= -1.001948   Ekb=  4.950286   kbcos=  0.319819
   l= 1   rc=  1.747182   el= -0.398598   Ekb= -4.108613   kbcos= -0.367053
   l= 2   rc=  1.930978   el=  0.002326   Ekb= -1.042946   kbcos= -0.009366
   l= 3   rc=  2.055542   el=  0.003420   Ekb= -0.408633   kbcos= -0.001262

KBgen: Total number of  Kleinman-Bylander projectors:   16
atom: -------------------------------------------------------------------------

atom: SANKEY-TYPE ORBITALS:
atom: Selected multiple-zeta basis: split     

SPLIT: Orbitals with angular momentum L= 0

SPLIT: Basis orbitals for state 2s

SPLIT: PAO cut-off radius determined from an
SPLIT: energy shift=  0.020000 Ry

   izeta = 1
                 lambda =    1.000000
                     rc =    4.191849
                 energy =   -0.983897
                kinetic =    0.880927
    potential(screened) =   -1.864824
       potential(ionic) =   -5.475687

   izeta = 2
                 rmatch =    3.431921
              splitnorm =    0.150000
                 energy =   -0.853083
                kinetic =    1.298222
    potential(screened) =   -2.151305
       potential(ionic) =   -5.995890

SPLIT: Orbitals with angular momentum L= 1

SPLIT: Basis orbitals for state 2p

SPLIT: PAO cut-off radius determined from an
SPLIT: energy shift=  0.020000 Ry

   izeta = 1
                 lambda =    1.000000
                     rc =    4.870301
                 energy =   -0.379093
                kinetic =    2.540023
    potential(screened) =   -2.919116
       potential(ionic) =   -6.427960

   izeta = 2
                 rmatch =    3.475094
              splitnorm =    0.150000
                 energy =   -0.215057
                kinetic =    3.814571
    potential(screened) =   -4.029628
       potential(ionic) =   -7.920250

POLgen: Perturbative polarization orbital with L=  2

POLgen: Polarization orbital for state 2p

   izeta = 1
                     rc =    4.870301
                 energy =    1.280996
                kinetic =    2.631310
    potential(screened) =   -1.350314
       potential(ionic) =   -4.295640
atom: Total number of Sankey-type orbitals: 13

atm_pop: Valence configuration (for local Pseudopot. screening):
 2s( 2.00)                                                            
 2p( 2.00)                                                            
Vna: chval, zval:    4.00000   4.00000

Vna:  Cut-off radius for the neutral-atom potential:   4.870301

atom: _________________________________________________________________________

<basis_specs>
===============================================================================
H                    Z=   1    Mass=  1.0100        Charge= 0.17977+309
Lmxo=0 Lmxkb= 2    BasisType=split      Semic=F
L=0  Nsemic=0  Cnfigmx=1
          n=1  nzeta=2  polorb=1
            splnorm:   0.15000    
               vcte:    0.0000    
               rinn:    0.0000    
               qcoe:    0.0000    
               qyuk:    0.0000    
               qwid:   0.10000E-01
                rcs:    0.0000      0.0000    
            lambdas:    1.0000      1.0000    
-------------------------------------------------------------------------------
L=0  Nkbl=1  erefs: 0.17977+309
L=1  Nkbl=1  erefs: 0.17977+309
L=2  Nkbl=1  erefs: 0.17977+309
===============================================================================
</basis_specs>

atom: Called for H                     (Z =   1)

read_vps: Pseudopotential generation method:
read_vps: ATM3      Troullier-Martins                       
Total valence charge:    1.00000

xc_check: Exchange-correlation functional:
xc_check: Ceperley-Alder
V l=0 = -2*Zval/r beyond r=  1.2977
V l=1 = -2*Zval/r beyond r=  1.2815
V l=2 = -2*Zval/r beyond r=  1.1307
All V_l potentials equal beyond r=  1.2977
This should be close to max(r_c) in ps generation
All pots = -2*Zval/r beyond r=  1.2977

VLOCAL1: 99.0% of the norm of Vloc inside     25.776 Ry
VLOCAL1: 99.9% of the norm of Vloc inside     58.745 Ry
atom: Maximum radius for 4*pi*r*r*local-pseudopot. charge    1.52711
atom: Maximum radius for r*vlocal+2*Zval:    1.28155
GHOST: No ghost state for L =  0
GHOST: No ghost state for L =  1
GHOST: No ghost state for L =  2

KBgen: Kleinman-Bylander projectors: 
   l= 0   rc=  1.434438   el= -0.467325   Ekb= -1.940326   kbcos= -0.353040
   l= 1   rc=  1.508111   el=  0.001430   Ekb= -0.480826   kbcos= -0.024144
   l= 2   rc=  1.527112   el=  0.002365   Ekb= -0.479392   kbcos= -0.001656

KBgen: Total number of  Kleinman-Bylander projectors:    9
atom: -------------------------------------------------------------------------

atom: SANKEY-TYPE ORBITALS:
atom: Selected multiple-zeta basis: split     

SPLIT: Orbitals with angular momentum L= 0

SPLIT: Basis orbitals for state 1s

SPLIT: PAO cut-off radius determined from an
SPLIT: energy shift=  0.020000 Ry

   izeta = 1
                 lambda =    1.000000
                     rc =    4.828263
                 energy =   -0.449375
                kinetic =    0.925762
    potential(screened) =   -1.375137
       potential(ionic) =   -1.911235

   izeta = 2
                 rmatch =    3.854947
              splitnorm =    0.150000
                 energy =   -0.336149
                kinetic =    1.498089
    potential(screened) =   -1.834238
       potential(ionic) =   -2.406110

POLgen: Perturbative polarization orbital with L=  1

POLgen: Polarization orbital for state 1s

   izeta = 1
                     rc =    4.828263
                 energy =    0.707053
                kinetic =    1.398668
    potential(screened) =   -0.691614
       potential(ionic) =   -1.171973
atom: Total number of Sankey-type orbitals:  5

atm_pop: Valence configuration (for local Pseudopot. screening):
 1s( 1.00)                                                            
Vna: chval, zval:    1.00000   1.00000

Vna:  Cut-off radius for the neutral-atom potential:   4.828263

atom: _________________________________________________________________________

prinput: Basis input ----------------------------------------------------------

PAO.BasisType split     

%block ChemicalSpeciesLabel
    1    6 C                       # Species index, atomic number, species label
    2    1 H                       # Species index, atomic number, species label
%endblock ChemicalSpeciesLabel

%block PAO.Basis                 # Define Basis set
C                     2                    # Species label, number of l-shells
 n=2   0   2                         # n, l, Nzeta 
   4.192      3.432   
   1.000      1.000   
 n=2   1   2 P   1                   # n, l, Nzeta, Polarization, NzetaPol
   4.870      3.475   
   1.000      1.000   
H                     1                    # Species label, number of l-shells
 n=1   0   2 P   1                   # n, l, Nzeta, Polarization, NzetaPol
   4.828      3.855   
   1.000      1.000   
%endblock PAO.Basis

prinput: ----------------------------------------------------------------------

coor:   Atomic-coordinates input format  =     Cartesian coordinates
coor:                                          (in Angstroms)

siesta: Atomic coordinates (Bohr) and species
siesta:      0.59030   0.53175   1.21509  1        1
siesta:      2.63900   0.13978   1.21509  2        2
siesta:      0.40557   2.60678   1.21509  2        3
siesta:     -0.59030  -0.53175  -1.21509  1        4
siesta:     -2.63900  -0.13978  -1.21509  2        5
siesta:     -0.40557  -2.60678  -1.21509  2        6
siesta:      0.59030   0.53175   6.07547  1        7
siesta:      2.63900   0.13978   6.07547  2        8
siesta:      0.40557   2.60678   6.07547  2        9
siesta:     -0.59030  -0.53175   3.64528  1       10
siesta:     -2.63900  -0.13978   3.64528  2       11
siesta:     -0.40557  -2.60678   3.64528  2       12
siesta:      0.59030   0.53175  10.93585  1       13
siesta:      2.63900   0.13978  10.93585  2       14
siesta:      0.40557   2.60678  10.93585  2       15
siesta:     -0.59030  -0.53175   8.50566  1       16
siesta:     -2.63900  -0.13978   8.50566  2       17
siesta:     -0.40557  -2.60678   8.50566  2       18
siesta:      0.59030   0.53175  15.79623  1       19
siesta:      2.63900   0.13978  15.79623  2       20
siesta:      0.40557   2.60678  15.79623  2       21
siesta:     -0.59030  -0.53175  13.36604  1       22
siesta:     -2.63900  -0.13978  13.36604  2       23
siesta:     -0.40557  -2.60678  13.36604  2       24
siesta:      0.59030   0.53175  20.65660  1       25
siesta:      2.63900   0.13978  20.65660  2       26
siesta:      0.40557   2.60678  20.65660  2       27
siesta:     -0.59030  -0.53175  18.22642  1       28
siesta:     -2.63900  -0.13978  18.22642  2       29
siesta:     -0.40557  -2.60678  18.22642  2       30
siesta:      0.59030   0.53175  25.51698  1       31
siesta:      2.63900   0.13978  25.51698  2       32
siesta:      0.40557   2.60678  25.51698  2       33
siesta:     -0.59030  -0.53175  23.08679  1       34
siesta:     -2.63900  -0.13978  23.08679  2       35
siesta:     -0.40557  -2.60678  23.08679  2       36
siesta:      0.59030   0.53175  30.37736  1       37
siesta:      2.63900   0.13978  30.37736  2       38
siesta:      0.40557   2.60678  30.37736  2       39
siesta:     -0.59030  -0.53175  27.94717  1       40
siesta:     -2.63900  -0.13978  27.94717  2       41
siesta:     -0.40557  -2.60678  27.94717  2       42
siesta:      0.59030   0.53175  35.23774  1       43
siesta:      2.63900   0.13978  35.23774  2       44
siesta:      0.40557   2.60678  35.23774  2       45
siesta:     -0.59030  -0.53175  32.80755  1       46
siesta:     -2.63900  -0.13978  32.80755  2       47
siesta:     -0.40557  -2.60678  32.80755  2       48
siesta:      0.59030   0.53175  40.09811  1       49
siesta:      2.63900   0.13978  40.09811  2       50
siesta:      0.40557   2.60678  40.09811  2       51
siesta:     -0.59030  -0.53175  37.66793  1       52
siesta:     -2.63900  -0.13978  37.66793  2       53
siesta:     -0.40557  -2.60678  37.66793  2       54
siesta:      0.59030   0.53175  44.95849  1       55
siesta:      2.63900   0.13978  44.95849  2       56
siesta:      0.40557   2.60678  44.95849  2       57
siesta:     -0.59030  -0.53175  42.52830  1       58
siesta:     -2.63900  -0.13978  42.52830  2       59
siesta:     -0.40557  -2.60678  42.52830  2       60
siesta:      0.59030   0.53175  49.81887  1       61
siesta:      2.63900   0.13978  49.81887  2       62
siesta:      0.40557   2.60678  49.81887  2       63
siesta:     -0.59030  -0.53175  47.38868  1       64
siesta:     -2.63900  -0.13978  47.38868  2       65
siesta:     -0.40557  -2.60678  47.38868  2       66
siesta:      0.59030   0.53175  54.67925  1       67
siesta:      2.63900   0.13978  54.67925  2       68
siesta:      0.40557   2.60678  54.67925  2       69
siesta:     -0.59030  -0.53175  52.24906  1       70
siesta:     -2.63900  -0.13978  52.24906  2       71
siesta:     -0.40557  -2.60678  52.24906  2       72
siesta:      0.59030   0.53175  59.53962  1       73
siesta:      2.63900   0.13978  59.53962  2       74
siesta:      0.40557   2.60678  59.53962  2       75
siesta:     -0.59030  -0.53175  57.10944  1       76
siesta:     -2.63900  -0.13978  57.10944  2       77
siesta:     -0.40557  -2.60678  57.10944  2       78
siesta:      0.59030   0.53175  64.40000  1       79
siesta:      2.63900   0.13978  64.40000  2       80
siesta:      0.40557   2.60678  64.40000  2       81
siesta:     -0.59030  -0.53175  61.96981  1       82
siesta:     -2.63900  -0.13978  61.96981  2       83
siesta:     -0.40557  -2.60678  61.96981  2       84
siesta:      0.59030   0.53175  69.26038  1       85
siesta:      2.63900   0.13978  69.26038  2       86
siesta:      0.40557   2.60678  69.26038  2       87
siesta:     -0.59030  -0.53175  66.83019  1       88
siesta:     -2.63900  -0.13978  66.83019  2       89
siesta:     -0.40557  -2.60678  66.83019  2       90
siesta:      0.59030   0.53175  74.12076  1       91
siesta:      2.63900   0.13978  74.12076  2       92
siesta:      0.40557   2.60678  74.12076  2       93
siesta:     -0.59030  -0.53175  71.69057  1       94
siesta:     -2.63900  -0.13978  71.69057  2       95
siesta:     -0.40557  -2.60678  71.69057  2       96
siesta:      0.59030   0.53175  78.98113  1       97
siesta:      2.63900   0.13978  78.98113  2       98
siesta:      0.40557   2.60678  78.98113  2       99
siesta:     -0.59030  -0.53175  76.55095  1      100
siesta:     -2.63900  -0.13978  76.55095  2      101
siesta:     -0.40557  -2.60678  76.55095  2      102
siesta:      0.59030   0.53175  83.84151  1      103
siesta:      2.63900   0.13978  83.84151  2      104
siesta:      0.40557   2.60678  83.84151  2      105
siesta:     -0.59030  -0.53175  81.41132  1      106
siesta:     -2.63900  -0.13978  81.41132  2      107
siesta:     -0.40557  -2.60678  81.41132  2      108
siesta:      0.59030   0.53175  88.70189  1      109
siesta:      2.63900   0.13978  88.70189  2      110
siesta:      0.40557   2.60678  88.70189  2      111
siesta:     -0.59030  -0.53175  86.27170  1      112
siesta:     -2.63900  -0.13978  86.27170  2      113
siesta:     -0.40557  -2.60678  86.27170  2      114
siesta:      0.59030   0.53175  93.56227  1      115
siesta:      2.63900   0.13978  93.56227  2      116
siesta:      0.40557   2.60678  93.56227  2      117
siesta:     -0.59030  -0.53175  91.13208  1      118
siesta:     -2.63900  -0.13978  91.13208  2      119
siesta:     -0.40557  -2.60678  91.13208  2      120
siesta:      0.59030   0.53175  98.42264  1      121
siesta:      2.63900   0.13978  98.42264  2      122
siesta:      0.40557   2.60678  98.42264  2      123
siesta:     -0.59030  -0.53175  95.99246  1      124
siesta:     -2.63900  -0.13978  95.99246  2      125
siesta:     -0.40557  -2.60678  95.99246  2      126
siesta:      0.59030   0.53175 103.28302  1      127
siesta:      2.63900   0.13978 103.28302  2      128
siesta:      0.40557   2.60678 103.28302  2      129
siesta:     -0.59030  -0.53175 100.85283  1      130
siesta:     -2.63900  -0.13978 100.85283  2      131
siesta:     -0.40557  -2.60678 100.85283  2      132
siesta:      0.59030   0.53175 108.14340  1      133
siesta:      2.63900   0.13978 108.14340  2      134
siesta:      0.40557   2.60678 108.14340  2      135
siesta:     -0.59030  -0.53175 105.71321  1      136
siesta:     -2.63900  -0.13978 105.71321  2      137
siesta:     -0.40557  -2.60678 105.71321  2      138
siesta:      0.59030   0.53175 113.00378  1      139
siesta:      2.63900   0.13978 113.00378  2      140
siesta:      0.40557   2.60678 113.00378  2      141
siesta:     -0.59030  -0.53175 110.57359  1      142
siesta:     -2.63900  -0.13978 110.57359  2      143
siesta:     -0.40557  -2.60678 110.57359  2      144
siesta:      0.59030   0.53175 117.86416  1      145
siesta:      2.63900   0.13978 117.86416  2      146
siesta:      0.40557   2.60678 117.86416  2      147
siesta:     -0.59030  -0.53175 115.43397  1      148
siesta:     -2.63900  -0.13978 115.43397  2      149
siesta:     -0.40557  -2.60678 115.43397  2      150
siesta:      0.59030   0.53175 122.72453  1      151
siesta:      2.63900   0.13978 122.72453  2      152
siesta:      0.40557   2.60678 122.72453  2      153
siesta:     -0.59030  -0.53175 120.29434  1      154
siesta:     -2.63900  -0.13978 120.29434  2      155
siesta:     -0.40557  -2.60678 120.29434  2      156
siesta:      0.59030   0.53175 127.58491  1      157
siesta:      2.63900   0.13978 127.58491  2      158
siesta:      0.40557   2.60678 127.58491  2      159
siesta:     -0.59030  -0.53175 125.15472  1      160
siesta:     -2.63900  -0.13978 125.15472  2      161
siesta:     -0.40557  -2.60678 125.15472  2      162
siesta:      0.59030   0.53175 132.44529  1      163
siesta:      2.63900   0.13978 132.44529  2      164
siesta:      0.40557   2.60678 132.44529  2      165
siesta:     -0.59030  -0.53175 130.01510  1      166
siesta:     -2.63900  -0.13978 130.01510  2      167
siesta:     -0.40557  -2.60678 130.01510  2      168
siesta:      0.59030   0.53175 137.30567  1      169
siesta:      2.63900   0.13978 137.30567  2      170
siesta:      0.40557   2.60678 137.30567  2      171
siesta:     -0.59030  -0.53175 134.87548  1      172
siesta:     -2.63900  -0.13978 134.87548  2      173
siesta:     -0.40557  -2.60678 134.87548  2      174
siesta:      0.59030   0.53175 142.16604  1      175
siesta:      2.63900   0.13978 142.16604  2      176
siesta:      0.40557   2.60678 142.16604  2      177
siesta:     -0.59030  -0.53175 139.73585  1      178
siesta:     -2.63900  -0.13978 139.73585  2      179
siesta:     -0.40557  -2.60678 139.73585  2      180
siesta:      0.59030   0.53175 147.02642  1      181
siesta:      2.63900   0.13978 147.02642  2      182
siesta:      0.40557   2.60678 147.02642  2      183
siesta:     -0.59030  -0.53175 144.59623  1      184
siesta:     -2.63900  -0.13978 144.59623  2      185
siesta:     -0.40557  -2.60678 144.59623  2      186
siesta:      0.59030   0.53175 151.88680  1      187
siesta:      2.63900   0.13978 151.88680  2      188
siesta:      0.40557   2.60678 151.88680  2      189
siesta:     -0.59030  -0.53175 149.45661  1      190
siesta:     -2.63900  -0.13978 149.45661  2      191
siesta:     -0.40557  -2.60678 149.45661  2      192
siesta:      0.59030   0.53175 156.74718  1      193
siesta:      2.63900   0.13978 156.74718  2      194
siesta:      0.40557   2.60678 156.74718  2      195
siesta:     -0.59030  -0.53175 154.31699  1      196
siesta:     -2.63900  -0.13978 154.31699  2      197
siesta:     -0.40557  -2.60678 154.31699  2      198
siesta:      0.59030   0.53175 161.60755  1      199
siesta:      2.63900   0.13978 161.60755  2      200
siesta:      0.40557   2.60678 161.60755  2      201
siesta:     -0.59030  -0.53175 159.17736  1      202
siesta:     -2.63900  -0.13978 159.17736  2      203
siesta:     -0.40557  -2.60678 159.17736  2      204
siesta:      0.59030   0.53175 166.46793  1      205
siesta:      2.63900   0.13978 166.46793  2      206
siesta:      0.40557   2.60678 166.46793  2      207
siesta:     -0.59030  -0.53175 164.03774  1      208
siesta:     -2.63900  -0.13978 164.03774  2      209
siesta:     -0.40557  -2.60678 164.03774  2      210
siesta:      0.59030   0.53175 171.32831  1      211
siesta:      2.63900   0.13978 171.32831  2      212
siesta:      0.40557   2.60678 171.32831  2      213
siesta:     -0.59030  -0.53175 168.89812  1      214
siesta:     -2.63900  -0.13978 168.89812  2      215
siesta:     -0.40557  -2.60678 168.89812  2      216
siesta:      0.59030   0.53175 176.18869  1      217
siesta:      2.63900   0.13978 176.18869  2      218
siesta:      0.40557   2.60678 176.18869  2      219
siesta:     -0.59030  -0.53175 173.75850  1      220
siesta:     -2.63900  -0.13978 173.75850  2      221
siesta:     -0.40557  -2.60678 173.75850  2      222
siesta:      0.59030   0.53175 181.04906  1      223
siesta:      2.63900   0.13978 181.04906  2      224
siesta:      0.40557   2.60678 181.04906  2      225
siesta:     -0.59030  -0.53175 178.61887  1      226
siesta:     -2.63900  -0.13978 178.61887  2      227
siesta:     -0.40557  -2.60678 178.61887  2      228
siesta:      0.59030   0.53175 185.90944  1      229
siesta:      2.63900   0.13978 185.90944  2      230
siesta:      0.40557   2.60678 185.90944  2      231
siesta:     -0.59030  -0.53175 183.47925  1      232
siesta:     -2.63900  -0.13978 183.47925  2      233
siesta:     -0.40557  -2.60678 183.47925  2      234
siesta:      0.59030   0.53175 190.76982  1      235
siesta:      2.63900   0.13978 190.76982  2      236
siesta:      0.40557   2.60678 190.76982  2      237
siesta:     -0.59030  -0.53175 188.33963  1      238
siesta:     -2.63900  -0.13978 188.33963  2      239
siesta:     -0.40557  -2.60678 188.33963  2      240
siesta:      0.59030   0.53175 195.63020  1      241
siesta:      2.63900   0.13978 195.63020  2      242
siesta:      0.40557   2.60678 195.63020  2      243
siesta:     -0.59030  -0.53175 193.20001  1      244
siesta:     -2.63900  -0.13978 193.20001  2      245
siesta:     -0.40557  -2.60678 193.20001  2      246
siesta:      0.59030   0.53175 200.49057  1      247
siesta:      2.63900   0.13978 200.49057  2      248
siesta:      0.40557   2.60678 200.49057  2      249
siesta:     -0.59030  -0.53175 198.06038  1      250
siesta:     -2.63900  -0.13978 198.06038  2      251
siesta:     -0.40557  -2.60678 198.06038  2      252
siesta:      0.59030   0.53175 205.35095  1      253
siesta:      2.63900   0.13978 205.35095  2      254
siesta:      0.40557   2.60678 205.35095  2      255
siesta:     -0.59030  -0.53175 202.92076  1      256
siesta:     -2.63900  -0.13978 202.92076  2      257
siesta:     -0.40557  -2.60678 202.92076  2      258
siesta:      0.59030   0.53175 210.21133  1      259
siesta:      2.63900   0.13978 210.21133  2      260
siesta:      0.40557   2.60678 210.21133  2      261
siesta:     -0.59030  -0.53175 207.78114  1      262
siesta:     -2.63900  -0.13978 207.78114  2      263
siesta:     -0.40557  -2.60678 207.78114  2      264
siesta:      0.59030   0.53175 215.07171  1      265
siesta:      2.63900   0.13978 215.07171  2      266
siesta:      0.40557   2.60678 215.07171  2      267
siesta:     -0.59030  -0.53175 212.64152  1      268
siesta:     -2.63900  -0.13978 212.64152  2      269
siesta:     -0.40557  -2.60678 212.64152  2      270
siesta:      0.59030   0.53175 219.93208  1      271
siesta:      2.63900   0.13978 219.93208  2      272
siesta:      0.40557   2.60678 219.93208  2      273
siesta:     -0.59030  -0.53175 217.50189  1      274
siesta:     -2.63900  -0.13978 217.50189  2      275
siesta:     -0.40557  -2.60678 217.50189  2      276
siesta:      0.59030   0.53175 224.79246  1      277
siesta:      2.63900   0.13978 224.79246  2      278
siesta:      0.40557   2.60678 224.79246  2      279
siesta:     -0.59030  -0.53175 222.36227  1      280
siesta:     -2.63900  -0.13978 222.36227  2      281
siesta:     -0.40557  -2.60678 222.36227  2      282
siesta:      0.59030   0.53175 229.65284  1      283
siesta:      2.63900   0.13978 229.65284  2      284
siesta:      0.40557   2.60678 229.65284  2      285
siesta:     -0.59030  -0.53175 227.22265  1      286
siesta:     -2.63900  -0.13978 227.22265  2      287
siesta:     -0.40557  -2.60678 227.22265  2      288
siesta:      0.59030   0.53175 234.51322  1      289
siesta:      2.63900   0.13978 234.51322  2      290
siesta:      0.40557   2.60678 234.51322  2      291
siesta:     -0.59030  -0.53175 232.08303  1      292
siesta:     -2.63900  -0.13978 232.08303  2      293
siesta:     -0.40557  -2.60678 232.08303  2      294
siesta:      0.59030   0.53175 239.37359  1      295
siesta:      2.63900   0.13978 239.37359  2      296
siesta:      0.40557   2.60678 239.37359  2      297
siesta:     -0.59030  -0.53175 236.94340  1      298
siesta:     -2.63900  -0.13978 236.94340  2      299
siesta:     -0.40557  -2.60678 236.94340  2      300
siesta:      0.59030   0.53175 244.23397  1      301
siesta:      2.63900   0.13978 244.23397  2      302
siesta:      0.40557   2.60678 244.23397  2      303
siesta:     -0.59030  -0.53175 241.80378  1      304
siesta:     -2.63900  -0.13978 241.80378  2      305
siesta:     -0.40557  -2.60678 241.80378  2      306
siesta:      0.59030   0.53175 249.09435  1      307
siesta:      2.63900   0.13978 249.09435  2      308
siesta:      0.40557   2.60678 249.09435  2      309
siesta:     -0.59030  -0.53175 246.66416  1      310
siesta:     -2.63900  -0.13978 246.66416  2      311
siesta:     -0.40557  -2.60678 246.66416  2      312
siesta:      0.59030   0.53175 253.95473  1      313
siesta:      2.63900   0.13978 253.95473  2      314
siesta:      0.40557   2.60678 253.95473  2      315
siesta:     -0.59030  -0.53175 251.52454  1      316
siesta:     -2.63900  -0.13978 251.52454  2      317
siesta:     -0.40557  -2.60678 251.52454  2      318
siesta:      0.59030   0.53175 258.81510  1      319
siesta:      2.63900   0.13978 258.81510  2      320
siesta:      0.40557   2.60678 258.81510  2      321
siesta:     -0.59030  -0.53175 256.38491  1      322
siesta:     -2.63900  -0.13978 256.38491  2      323
siesta:     -0.40557  -2.60678 256.38491  2      324
siesta:      0.59030   0.53175 263.67548  1      325
siesta:      2.63900   0.13978 263.67548  2      326
siesta:      0.40557   2.60678 263.67548  2      327
siesta:     -0.59030  -0.53175 261.24529  1      328
siesta:     -2.63900  -0.13978 261.24529  2      329
siesta:     -0.40557  -2.60678 261.24529  2      330
siesta:      0.59030   0.53175 268.53586  1      331
siesta:      2.63900   0.13978 268.53586  2      332
siesta:      0.40557   2.60678 268.53586  2      333
siesta:     -0.59030  -0.53175 266.10567  1      334
siesta:     -2.63900  -0.13978 266.10567  2      335
siesta:     -0.40557  -2.60678 266.10567  2      336
siesta:      0.59030   0.53175 273.39624  1      337
siesta:      2.63900   0.13978 273.39624  2      338
siesta:      0.40557   2.60678 273.39624  2      339
siesta:     -0.59030  -0.53175 270.96605  1      340
siesta:     -2.63900  -0.13978 270.96605  2      341
siesta:     -0.40557  -2.60678 270.96605  2      342
siesta:      0.59030   0.53175 278.25661  1      343
siesta:      2.63900   0.13978 278.25661  2      344
siesta:      0.40557   2.60678 278.25661  2      345
siesta:     -0.59030  -0.53175 275.82642  1      346
siesta:     -2.63900  -0.13978 275.82642  2      347
siesta:     -0.40557  -2.60678 275.82642  2      348
siesta:      0.59030   0.53175 283.11699  1      349
siesta:      2.63900   0.13978 283.11699  2      350
siesta:      0.40557   2.60678 283.11699  2      351
siesta:     -0.59030  -0.53175 280.68680  1      352
siesta:     -2.63900  -0.13978 280.68680  2      353
siesta:     -0.40557  -2.60678 280.68680  2      354
siesta:      0.59030   0.53175 287.97737  1      355
siesta:      2.63900   0.13978 287.97737  2      356
siesta:      0.40557   2.60678 287.97737  2      357
siesta:     -0.59030  -0.53175 285.54718  1      358
siesta:     -2.63900  -0.13978 285.54718  2      359
siesta:     -0.40557  -2.60678 285.54718  2      360
siesta:      0.59030   0.53175 292.83775  1      361
siesta:      2.63900   0.13978 292.83775  2      362
siesta:      0.40557   2.60678 292.83775  2      363
siesta:     -0.59030  -0.53175 290.40756  1      364
siesta:     -2.63900  -0.13978 290.40756  2      365
siesta:     -0.40557  -2.60678 290.40756  2      366
siesta:      0.59030   0.53175 297.69812  1      367
siesta:      2.63900   0.13978 297.69812  2      368
siesta:      0.40557   2.60678 297.69812  2      369
siesta:     -0.59030  -0.53175 295.26793  1      370
siesta:     -2.63900  -0.13978 295.26793  2      371
siesta:     -0.40557  -2.60678 295.26793  2      372
siesta:      0.59030   0.53175 302.55850  1      373
siesta:      2.63900   0.13978 302.55850  2      374
siesta:      0.40557   2.60678 302.55850  2      375
siesta:     -0.59030  -0.53175 300.12831  1      376
siesta:     -2.63900  -0.13978 300.12831  2      377
siesta:     -0.40557  -2.60678 300.12831  2      378
siesta:      0.59030   0.53175 307.41888  1      379
siesta:      2.63900   0.13978 307.41888  2      380
siesta:      0.40557   2.60678 307.41888  2      381
siesta:     -0.59030  -0.53175 304.98869  1      382
siesta:     -2.63900  -0.13978 304.98869  2      383
siesta:     -0.40557  -2.60678 304.98869  2      384
siesta:      0.59030   0.53175 312.27926  1      385
siesta:      2.63900   0.13978 312.27926  2      386
siesta:      0.40557   2.60678 312.27926  2      387
siesta:     -0.59030  -0.53175 309.84907  1      388
siesta:     -2.63900  -0.13978 309.84907  2      389
siesta:     -0.40557  -2.60678 309.84907  2      390
siesta:      0.59030   0.53175 317.13963  1      391
siesta:      2.63900   0.13978 317.13963  2      392
siesta:      0.40557   2.60678 317.13963  2      393
siesta:     -0.59030  -0.53175 314.70945  1      394
siesta:     -2.63900  -0.13978 314.70945  2      395
siesta:     -0.40557  -2.60678 314.70945  2      396
siesta:      0.59030   0.53175 322.00001  1      397
siesta:      2.63900   0.13978 322.00001  2      398
siesta:      0.40557   2.60678 322.00001  2      399
siesta:     -0.59030  -0.53175 319.56982  1      400
siesta:     -2.63900  -0.13978 319.56982  2      401
siesta:     -0.40557  -2.60678 319.56982  2      402
siesta:      0.59030   0.53175 326.86039  1      403
siesta:      2.63900   0.13978 326.86039  2      404
siesta:      0.40557   2.60678 326.86039  2      405
siesta:     -0.59030  -0.53175 324.43020  1      406
siesta:     -2.63900  -0.13978 324.43020  2      407
siesta:     -0.40557  -2.60678 324.43020  2      408
siesta:      0.59030   0.53175 331.72077  1      409
siesta:      2.63900   0.13978 331.72077  2      410
siesta:      0.40557   2.60678 331.72077  2      411
siesta:     -0.59030  -0.53175 329.29058  1      412
siesta:     -2.63900  -0.13978 329.29058  2      413
siesta:     -0.40557  -2.60678 329.29058  2      414
siesta:      0.59030   0.53175 336.58114  1      415
siesta:      2.63900   0.13978 336.58114  2      416
siesta:      0.40557   2.60678 336.58114  2      417
siesta:     -0.59030  -0.53175 334.15096  1      418
siesta:     -2.63900  -0.13978 334.15096  2      419
siesta:     -0.40557  -2.60678 334.15096  2      420
siesta:      0.59030   0.53175 341.44152  1      421
siesta:      2.63900   0.13978 341.44152  2      422
siesta:      0.40557   2.60678 341.44152  2      423
siesta:     -0.59030  -0.53175 339.01133  1      424
siesta:     -2.63900  -0.13978 339.01133  2      425
siesta:     -0.40557  -2.60678 339.01133  2      426
siesta:      0.59030   0.53175 346.30190  1      427
siesta:      2.63900   0.13978 346.30190  2      428
siesta:      0.40557   2.60678 346.30190  2      429
siesta:     -0.59030  -0.53175 343.87171  1      430
siesta:     -2.63900  -0.13978 343.87171  2      431
siesta:     -0.40557  -2.60678 343.87171  2      432
siesta:      0.59030   0.53175 351.16228  1      433
siesta:      2.63900   0.13978 351.16228  2      434
siesta:      0.40557   2.60678 351.16228  2      435
siesta:     -0.59030  -0.53175 348.73209  1      436
siesta:     -2.63900  -0.13978 348.73209  2      437
siesta:     -0.40557  -2.60678 348.73209  2      438
siesta:      0.59030   0.53175 356.02265  1      439
siesta:      2.63900   0.13978 356.02265  2      440
siesta:      0.40557   2.60678 356.02265  2      441
siesta:     -0.59030  -0.53175 353.59247  1      442
siesta:     -2.63900  -0.13978 353.59247  2      443
siesta:     -0.40557  -2.60678 353.59247  2      444
siesta:      0.59030   0.53175 360.88303  1      445
siesta:      2.63900   0.13978 360.88303  2      446
siesta:      0.40557   2.60678 360.88303  2      447
siesta:     -0.59030  -0.53175 358.45284  1      448
siesta:     -2.63900  -0.13978 358.45284  2      449
siesta:     -0.40557  -2.60678 358.45284  2      450
siesta:      0.59030   0.53175 365.74341  1      451
siesta:      2.63900   0.13978 365.74341  2      452
siesta:      0.40557   2.60678 365.74341  2      453
siesta:     -0.59030  -0.53175 363.31322  1      454
siesta:     -2.63900  -0.13978 363.31322  2      455
siesta:     -0.40557  -2.60678 363.31322  2      456
siesta:      0.59030   0.53175 370.60379  1      457
siesta:      2.63900   0.13978 370.60379  2      458
siesta:      0.40557   2.60678 370.60379  2      459
siesta:     -0.59030  -0.53175 368.17360  1      460
siesta:     -2.63900  -0.13978 368.17360  2      461
siesta:     -0.40557  -2.60678 368.17360  2      462
siesta:      0.59030   0.53175 375.46416  1      463
siesta:      2.63900   0.13978 375.46416  2      464
siesta:      0.40557   2.60678 375.46416  2      465
siesta:     -0.59030  -0.53175 373.03398  1      466
siesta:     -2.63900  -0.13978 373.03398  2      467
siesta:     -0.40557  -2.60678 373.03398  2      468
siesta:      0.59030   0.53175 380.32454  1      469
siesta:      2.63900   0.13978 380.32454  2      470
siesta:      0.40557   2.60678 380.32454  2      471
siesta:     -0.59030  -0.53175 377.89435  1      472
siesta:     -2.63900  -0.13978 377.89435  2      473
siesta:     -0.40557  -2.60678 377.89435  2      474
siesta:      0.59030   0.53175 385.18492  1      475
siesta:      2.63900   0.13978 385.18492  2      476
siesta:      0.40557   2.60678 385.18492  2      477
siesta:     -0.59030  -0.53175 382.75473  1      478
siesta:     -2.63900  -0.13978 382.75473  2      479
siesta:     -0.40557  -2.60678 382.75473  2      480
siesta:      0.59030   0.53175 390.04530  1      481
siesta:      2.63900   0.13978 390.04530  2      482
siesta:      0.40557   2.60678 390.04530  2      483
siesta:     -0.59030  -0.53175 387.61511  1      484
siesta:     -2.63900  -0.13978 387.61511  2      485
siesta:     -0.40557  -2.60678 387.61511  2      486
siesta:      0.59030   0.53175 394.90567  1      487
siesta:      2.63900   0.13978 394.90567  2      488
siesta:      0.40557   2.60678 394.90567  2      489
siesta:     -0.59030  -0.53175 392.47549  1      490
siesta:     -2.63900  -0.13978 392.47549  2      491
siesta:     -0.40557  -2.60678 392.47549  2      492
siesta:      0.59030   0.53175 399.76605  1      493
siesta:      2.63900   0.13978 399.76605  2      494
siesta:      0.40557   2.60678 399.76605  2      495
siesta:     -0.59030  -0.53175 397.33586  1      496
siesta:     -2.63900  -0.13978 397.33586  2      497
siesta:     -0.40557  -2.60678 397.33586  2      498
siesta:      0.59030   0.53175 404.62643  1      499
siesta:      2.63900   0.13978 404.62643  2      500
siesta:      0.40557   2.60678 404.62643  2      501
siesta:     -0.59030  -0.53175 402.19624  1      502
siesta:     -2.63900  -0.13978 402.19624  2      503
siesta:     -0.40557  -2.60678 402.19624  2      504
siesta:      0.59030   0.53175 409.48681  1      505
siesta:      2.63900   0.13978 409.48681  2      506
siesta:      0.40557   2.60678 409.48681  2      507
siesta:     -0.59030  -0.53175 407.05662  1      508
siesta:     -2.63900  -0.13978 407.05662  2      509
siesta:     -0.40557  -2.60678 407.05662  2      510
siesta:      0.59030   0.53175 414.34718  1      511
siesta:      2.63900   0.13978 414.34718  2      512
siesta:      0.40557   2.60678 414.34718  2      513
siesta:     -0.59030  -0.53175 411.91700  1      514
siesta:     -2.63900  -0.13978 411.91700  2      515
siesta:     -0.40557  -2.60678 411.91700  2      516
siesta:      0.59030   0.53175 419.20756  1      517
siesta:      2.63900   0.13978 419.20756  2      518
siesta:      0.40557   2.60678 419.20756  2      519
siesta:     -0.59030  -0.53175 416.77737  1      520
siesta:     -2.63900  -0.13978 416.77737  2      521
siesta:     -0.40557  -2.60678 416.77737  2      522
siesta:      0.59030   0.53175 424.06794  1      523
siesta:      2.63900   0.13978 424.06794  2      524
siesta:      0.40557   2.60678 424.06794  2      525
siesta:     -0.59030  -0.53175 421.63775  1      526
siesta:     -2.63900  -0.13978 421.63775  2      527
siesta:     -0.40557  -2.60678 421.63775  2      528
siesta:      0.59030   0.53175 428.92832  1      529
siesta:      2.63900   0.13978 428.92832  2      530
siesta:      0.40557   2.60678 428.92832  2      531
siesta:     -0.59030  -0.53175 426.49813  1      532
siesta:     -2.63900  -0.13978 426.49813  2      533
siesta:     -0.40557  -2.60678 426.49813  2      534
siesta:      0.59030   0.53175 433.78869  1      535
siesta:      2.63900   0.13978 433.78869  2      536
siesta:      0.40557   2.60678 433.78869  2      537
siesta:     -0.59030  -0.53175 431.35851  1      538
siesta:     -2.63900  -0.13978 431.35851  2      539
siesta:     -0.40557  -2.60678 431.35851  2      540
siesta:      0.59030   0.53175 438.64907  1      541
siesta:      2.63900   0.13978 438.64907  2      542
siesta:      0.40557   2.60678 438.64907  2      543
siesta:     -0.59030  -0.53175 436.21888  1      544
siesta:     -2.63900  -0.13978 436.21888  2      545
siesta:     -0.40557  -2.60678 436.21888  2      546
siesta:      0.59030   0.53175 443.50945  1      547
siesta:      2.63900   0.13978 443.50945  2      548
siesta:      0.40557   2.60678 443.50945  2      549
siesta:     -0.59030  -0.53175 441.07926  1      550
siesta:     -2.63900  -0.13978 441.07926  2      551
siesta:     -0.40557  -2.60678 441.07926  2      552
siesta:      0.59030   0.53175 448.36983  1      553
siesta:      2.63900   0.13978 448.36983  2      554
siesta:      0.40557   2.60678 448.36983  2      555
siesta:     -0.59030  -0.53175 445.93964  1      556
siesta:     -2.63900  -0.13978 445.93964  2      557
siesta:     -0.40557  -2.60678 445.93964  2      558
siesta:      0.59030   0.53175 453.23020  1      559
siesta:      2.63900   0.13978 453.23020  2      560
siesta:      0.40557   2.60678 453.23020  2      561
siesta:     -0.59030  -0.53175 450.80002  1      562
siesta:     -2.63900  -0.13978 450.80002  2      563
siesta:     -0.40557  -2.60678 450.80002  2      564
siesta:      0.59030   0.53175 458.09058  1      565
siesta:      2.63900   0.13978 458.09058  2      566
siesta:      0.40557   2.60678 458.09058  2      567
siesta:     -0.59030  -0.53175 455.66039  1      568
siesta:     -2.63900  -0.13978 455.66039  2      569
siesta:     -0.40557  -2.60678 455.66039  2      570
siesta:      0.59030   0.53175 462.95096  1      571
siesta:      2.63900   0.13978 462.95096  2      572
siesta:      0.40557   2.60678 462.95096  2      573
siesta:     -0.59030  -0.53175 460.52077  1      574
siesta:     -2.63900  -0.13978 460.52077  2      575
siesta:     -0.40557  -2.60678 460.52077  2      576
siesta:      0.59030   0.53175 467.81134  1      577
siesta:      2.63900   0.13978 467.81134  2      578
siesta:      0.40557   2.60678 467.81134  2      579
siesta:     -0.59030  -0.53175 465.38115  1      580
siesta:     -2.63900  -0.13978 465.38115  2      581
siesta:     -0.40557  -2.60678 465.38115  2      582
siesta:      0.59030   0.53175 472.67171  1      583
siesta:      2.63900   0.13978 472.67171  2      584
siesta:      0.40557   2.60678 472.67171  2      585
siesta:     -0.59030  -0.53175 470.24153  1      586
siesta:     -2.63900  -0.13978 470.24153  2      587
siesta:     -0.40557  -2.60678 470.24153  2      588
siesta:      0.59030   0.53175 477.53209  1      589
siesta:      2.63900   0.13978 477.53209  2      590
siesta:      0.40557   2.60678 477.53209  2      591
siesta:     -0.59030  -0.53175 475.10190  1      592
siesta:     -2.63900  -0.13978 475.10190  2      593
siesta:     -0.40557  -2.60678 475.10190  2      594
siesta:      0.59030   0.53175 482.39247  1      595
siesta:      2.63900   0.13978 482.39247  2      596
siesta:      0.40557   2.60678 482.39247  2      597
siesta:     -0.59030  -0.53175 479.96228  1      598
siesta:     -2.63900  -0.13978 479.96228  2      599
siesta:     -0.40557  -2.60678 479.96228  2      600
siesta:      0.59030   0.53175 487.25285  1      601
siesta:      2.63900   0.13978 487.25285  2      602
siesta:      0.40557   2.60678 487.25285  2      603
siesta:     -0.59030  -0.53175 484.82266  1      604
siesta:     -2.63900  -0.13978 484.82266  2      605
siesta:     -0.40557  -2.60678 484.82266  2      606
siesta:      0.59030   0.53175 492.11322  1      607
siesta:      2.63900   0.13978 492.11322  2      608
siesta:      0.40557   2.60678 492.11322  2      609
siesta:     -0.59030  -0.53175 489.68304  1      610
siesta:     -2.63900  -0.13978 489.68304  2      611
siesta:     -0.40557  -2.60678 489.68304  2      612
siesta:      0.59030   0.53175 496.97360  1      613
siesta:      2.63900   0.13978 496.97360  2      614
siesta:      0.40557   2.60678 496.97360  2      615
siesta:     -0.59030  -0.53175 494.54341  1      616
siesta:     -2.63900  -0.13978 494.54341  2      617
siesta:     -0.40557  -2.60678 494.54341  2      618
siesta:      0.59030   0.53175 501.83398  1      619
siesta:      2.63900   0.13978 501.83398  2      620
siesta:      0.40557   2.60678 501.83398  2      621
siesta:     -0.59030  -0.53175 499.40379  1      622
siesta:     -2.63900  -0.13978 499.40379  2      623
siesta:     -0.40557  -2.60678 499.40379  2      624
siesta:      0.59030   0.53175 506.69436  1      625
siesta:      2.63900   0.13978 506.69436  2      626
siesta:      0.40557   2.60678 506.69436  2      627
siesta:     -0.59030  -0.53175 504.26417  1      628
siesta:     -2.63900  -0.13978 504.26417  2      629
siesta:     -0.40557  -2.60678 504.26417  2      630
siesta:      0.59030   0.53175 511.55473  1      631
siesta:      2.63900   0.13978 511.55473  2      632
siesta:      0.40557   2.60678 511.55473  2      633
siesta:     -0.59030  -0.53175 509.12455  1      634
siesta:     -2.63900  -0.13978 509.12455  2      635
siesta:     -0.40557  -2.60678 509.12455  2      636
siesta:      0.59030   0.53175 516.41511  1      637
siesta:      2.63900   0.13978 516.41511  2      638
siesta:      0.40557   2.60678 516.41511  2      639
siesta:     -0.59030  -0.53175 513.98492  1      640
siesta:     -2.63900  -0.13978 513.98492  2      641
siesta:     -0.40557  -2.60678 513.98492  2      642
siesta:      0.59030   0.53175 521.27549  1      643
siesta:      2.63900   0.13978 521.27549  2      644
siesta:      0.40557   2.60678 521.27549  2      645
siesta:     -0.59030  -0.53175 518.84530  1      646
siesta:     -2.63900  -0.13978 518.84530  2      647
siesta:     -0.40557  -2.60678 518.84530  2      648
siesta:      0.59030   0.53175 526.13587  1      649
siesta:      2.63900   0.13978 526.13587  2      650
siesta:      0.40557   2.60678 526.13587  2      651
siesta:     -0.59030  -0.53175 523.70568  1      652
siesta:     -2.63900  -0.13978 523.70568  2      653
siesta:     -0.40557  -2.60678 523.70568  2      654
siesta:      0.59030   0.53175 530.99625  1      655
siesta:      2.63900   0.13978 530.99625  2      656
siesta:      0.40557   2.60678 530.99625  2      657
siesta:     -0.59030  -0.53175 528.56606  1      658
siesta:     -2.63900  -0.13978 528.56606  2      659
siesta:     -0.40557  -2.60678 528.56606  2      660
siesta:      0.59030   0.53175 535.85662  1      661
siesta:      2.63900   0.13978 535.85662  2      662
siesta:      0.40557   2.60678 535.85662  2      663
siesta:     -0.59030  -0.53175 533.42643  1      664
siesta:     -2.63900  -0.13978 533.42643  2      665
siesta:     -0.40557  -2.60678 533.42643  2      666
siesta:      0.59030   0.53175 540.71700  1      667
siesta:      2.63900   0.13978 540.71700  2      668
siesta:      0.40557   2.60678 540.71700  2      669
siesta:     -0.59030  -0.53175 538.28681  1      670
siesta:     -2.63900  -0.13978 538.28681  2      671
siesta:     -0.40557  -2.60678 538.28681  2      672
siesta:      0.59030   0.53175 545.57738  1      673
siesta:      2.63900   0.13978 545.57738  2      674
siesta:      0.40557   2.60678 545.57738  2      675
siesta:     -0.59030  -0.53175 543.14719  1      676
siesta:     -2.63900  -0.13978 543.14719  2      677
siesta:     -0.40557  -2.60678 543.14719  2      678
siesta:      0.59030   0.53175 550.43776  1      679
siesta:      2.63900   0.13978 550.43776  2      680
siesta:      0.40557   2.60678 550.43776  2      681
siesta:     -0.59030  -0.53175 548.00757  1      682
siesta:     -2.63900  -0.13978 548.00757  2      683
siesta:     -0.40557  -2.60678 548.00757  2      684
siesta:      0.59030   0.53175 555.29813  1      685
siesta:      2.63900   0.13978 555.29813  2      686
siesta:      0.40557   2.60678 555.29813  2      687
siesta:     -0.59030  -0.53175 552.86794  1      688
siesta:     -2.63900  -0.13978 552.86794  2      689
siesta:     -0.40557  -2.60678 552.86794  2      690
siesta:      0.59030   0.53175 560.15851  1      691
siesta:      2.63900   0.13978 560.15851  2      692
siesta:      0.40557   2.60678 560.15851  2      693
siesta:     -0.59030  -0.53175 557.72832  1      694
siesta:     -2.63900  -0.13978 557.72832  2      695
siesta:     -0.40557  -2.60678 557.72832  2      696
siesta:      0.59030   0.53175 565.01889  1      697
siesta:      2.63900   0.13978 565.01889  2      698
siesta:      0.40557   2.60678 565.01889  2      699
siesta:     -0.59030  -0.53175 562.58870  1      700
siesta:     -2.63900  -0.13978 562.58870  2      701
siesta:     -0.40557  -2.60678 562.58870  2      702
siesta:      0.59030   0.53175 569.87927  1      703
siesta:      2.63900   0.13978 569.87927  2      704
siesta:      0.40557   2.60678 569.87927  2      705
siesta:     -0.59030  -0.53175 567.44908  1      706
siesta:     -2.63900  -0.13978 567.44908  2      707
siesta:     -0.40557  -2.60678 567.44908  2      708
siesta:      0.59030   0.53175 574.73964  1      709
siesta:      2.63900   0.13978 574.73964  2      710
siesta:      0.40557   2.60678 574.73964  2      711
siesta:     -0.59030  -0.53175 572.30945  1      712
siesta:     -2.63900  -0.13978 572.30945  2      713
siesta:     -0.40557  -2.60678 572.30945  2      714
siesta:      0.59030   0.53175 579.60002  1      715
siesta:      2.63900   0.13978 579.60002  2      716
siesta:      0.40557   2.60678 579.60002  2      717
siesta:     -0.59030  -0.53175 577.16983  1      718
siesta:     -2.63900  -0.13978 577.16983  2      719
siesta:     -0.40557  -2.60678 577.16983  2      720
siesta:      0.59030   0.53175 584.46040  1      721
siesta:      2.63900   0.13978 584.46040  2      722
siesta:      0.40557   2.60678 584.46040  2      723
siesta:     -0.59030  -0.53175 582.03021  1      724
siesta:     -2.63900  -0.13978 582.03021  2      725
siesta:     -0.40557  -2.60678 582.03021  2      726
siesta:      0.59030   0.53175 589.32078  1      727
siesta:      2.63900   0.13978 589.32078  2      728
siesta:      0.40557   2.60678 589.32078  2      729
siesta:     -0.59030  -0.53175 586.89059  1      730
siesta:     -2.63900  -0.13978 586.89059  2      731
siesta:     -0.40557  -2.60678 586.89059  2      732
siesta:      0.59030   0.53175 594.18115  1      733
siesta:      2.63900   0.13978 594.18115  2      734
siesta:      0.40557   2.60678 594.18115  2      735
siesta:     -0.59030  -0.53175 591.75096  1      736
siesta:     -2.63900  -0.13978 591.75096  2      737
siesta:     -0.40557  -2.60678 591.75096  2      738
siesta:      0.59030   0.53175 599.04153  1      739
siesta:      2.63900   0.13978 599.04153  2      740
siesta:      0.40557   2.60678 599.04153  2      741
siesta:     -0.59030  -0.53175 596.61134  1      742
siesta:     -2.63900  -0.13978 596.61134  2      743
siesta:     -0.40557  -2.60678 596.61134  2      744
siesta:      0.59030   0.53175 603.90191  1      745
siesta:      2.63900   0.13978 603.90191  2      746
siesta:      0.40557   2.60678 603.90191  2      747
siesta:     -0.59030  -0.53175 601.47172  1      748
siesta:     -2.63900  -0.13978 601.47172  2      749
siesta:     -0.40557  -2.60678 601.47172  2      750
siesta:      0.59030   0.53175 608.76229  1      751
siesta:      2.63900   0.13978 608.76229  2      752
siesta:      0.40557   2.60678 608.76229  2      753
siesta:     -0.59030  -0.53175 606.33210  1      754
siesta:     -2.63900  -0.13978 606.33210  2      755
siesta:     -0.40557  -2.60678 606.33210  2      756
siesta:      0.59030   0.53175 613.62266  1      757
siesta:      2.63900   0.13978 613.62266  2      758
siesta:      0.40557   2.60678 613.62266  2      759
siesta:     -0.59030  -0.53175 611.19247  1      760
siesta:     -2.63900  -0.13978 611.19247  2      761
siesta:     -0.40557  -2.60678 611.19247  2      762
siesta:      0.59030   0.53175 618.48304  1      763
siesta:      2.63900   0.13978 618.48304  2      764
siesta:      0.40557   2.60678 618.48304  2      765
siesta:     -0.59030  -0.53175 616.05285  1      766
siesta:     -2.63900  -0.13978 616.05285  2      767
siesta:     -0.40557  -2.60678 616.05285  2      768
siesta:      0.59030   0.53175 623.34342  1      769
siesta:      2.63900   0.13978 623.34342  2      770
siesta:      0.40557   2.60678 623.34342  2      771
siesta:     -0.59030  -0.53175 620.91323  1      772
siesta:     -2.63900  -0.13978 620.91323  2      773
siesta:     -0.40557  -2.60678 620.91323  2      774
siesta:      0.59030   0.53175 628.20380  1      775
siesta:      2.63900   0.13978 628.20380  2      776
siesta:      0.40557   2.60678 628.20380  2      777
siesta:     -0.59030  -0.53175 625.77361  1      778
siesta:     -2.63900  -0.13978 625.77361  2      779
siesta:     -0.40557  -2.60678 625.77361  2      780
siesta:      0.59030   0.53175 633.06417  1      781
siesta:      2.63900   0.13978 633.06417  2      782
siesta:      0.40557   2.60678 633.06417  2      783
siesta:     -0.59030  -0.53175 630.63398  1      784
siesta:     -2.63900  -0.13978 630.63398  2      785
siesta:     -0.40557  -2.60678 630.63398  2      786
siesta:      0.59030   0.53175 637.92455  1      787
siesta:      2.63900   0.13978 637.92455  2      788
siesta:      0.40557   2.60678 637.92455  2      789
siesta:     -0.59030  -0.53175 635.49436  1      790
siesta:     -2.63900  -0.13978 635.49436  2      791
siesta:     -0.40557  -2.60678 635.49436  2      792
siesta:      0.59030   0.53175 642.78493  1      793
siesta:      2.63900   0.13978 642.78493  2      794
siesta:      0.40557   2.60678 642.78493  2      795
siesta:     -0.59030  -0.53175 640.35474  1      796
siesta:     -2.63900  -0.13978 640.35474  2      797
siesta:     -0.40557  -2.60678 640.35474  2      798
siesta:      0.59030   0.53175 647.64531  1      799
siesta:      2.63900   0.13978 647.64531  2      800
siesta:      0.40557   2.60678 647.64531  2      801
siesta:     -0.59030  -0.53175 645.21512  1      802
siesta:     -2.63900  -0.13978 645.21512  2      803
siesta:     -0.40557  -2.60678 645.21512  2      804
siesta:      0.59030   0.53175 652.50568  1      805
siesta:      2.63900   0.13978 652.50568  2      806
siesta:      0.40557   2.60678 652.50568  2      807
siesta:     -0.59030  -0.53175 650.07549  1      808
siesta:     -2.63900  -0.13978 650.07549  2      809
siesta:     -0.40557  -2.60678 650.07549  2      810
siesta:      0.59030   0.53175 657.36606  1      811
siesta:      2.63900   0.13978 657.36606  2      812
siesta:      0.40557   2.60678 657.36606  2      813
siesta:     -0.59030  -0.53175 654.93587  1      814
siesta:     -2.63900  -0.13978 654.93587  2      815
siesta:     -0.40557  -2.60678 654.93587  2      816
siesta:      0.59030   0.53175 662.22644  1      817
siesta:      2.63900   0.13978 662.22644  2      818
siesta:      0.40557   2.60678 662.22644  2      819
siesta:     -0.59030  -0.53175 659.79625  1      820
siesta:     -2.63900  -0.13978 659.79625  2      821
siesta:     -0.40557  -2.60678 659.79625  2      822
siesta:      0.59030   0.53175 667.08682  1      823
siesta:      2.63900   0.13978 667.08682  2      824
siesta:      0.40557   2.60678 667.08682  2      825
siesta:     -0.59030  -0.53175 664.65663  1      826
siesta:     -2.63900  -0.13978 664.65663  2      827
siesta:     -0.40557  -2.60678 664.65663  2      828
siesta:      0.59030   0.53175 671.94719  1      829
siesta:      2.63900   0.13978 671.94719  2      830
siesta:      0.40557   2.60678 671.94719  2      831
siesta:     -0.59030  -0.53175 669.51700  1      832
siesta:     -2.63900  -0.13978 669.51700  2      833
siesta:     -0.40557  -2.60678 669.51700  2      834
siesta:      0.59030   0.53175 676.80757  1      835
siesta:      2.63900   0.13978 676.80757  2      836
siesta:      0.40557   2.60678 676.80757  2      837
siesta:     -0.59030  -0.53175 674.37738  1      838
siesta:     -2.63900  -0.13978 674.37738  2      839
siesta:     -0.40557  -2.60678 674.37738  2      840
siesta:      0.59030   0.53175 681.66795  1      841
siesta:      2.63900   0.13978 681.66795  2      842
siesta:      0.40557   2.60678 681.66795  2      843
siesta:     -0.59030  -0.53175 679.23776  1      844
siesta:     -2.63900  -0.13978 679.23776  2      845
siesta:     -0.40557  -2.60678 679.23776  2      846
siesta:      0.59030   0.53175 686.52833  1      847
siesta:      2.63900   0.13978 686.52833  2      848
siesta:      0.40557   2.60678 686.52833  2      849
siesta:     -0.59030  -0.53175 684.09814  1      850
siesta:     -2.63900  -0.13978 684.09814  2      851
siesta:     -0.40557  -2.60678 684.09814  2      852
siesta:      0.59030   0.53175 691.38870  1      853
siesta:      2.63900   0.13978 691.38870  2      854
siesta:      0.40557   2.60678 691.38870  2      855
siesta:     -0.59030  -0.53175 688.95851  1      856
siesta:     -2.63900  -0.13978 688.95851  2      857
siesta:     -0.40557  -2.60678 688.95851  2      858
siesta:      0.59030   0.53175 696.24908  1      859
siesta:      2.63900   0.13978 696.24908  2      860
siesta:      0.40557   2.60678 696.24908  2      861
siesta:     -0.59030  -0.53175 693.81889  1      862
siesta:     -2.63900  -0.13978 693.81889  2      863
siesta:     -0.40557  -2.60678 693.81889  2      864
siesta:      0.59030   0.53175 701.10946  1      865
siesta:      2.63900   0.13978 701.10946  2      866
siesta:      0.40557   2.60678 701.10946  2      867
siesta:     -0.59030  -0.53175 698.67927  1      868
siesta:     -2.63900  -0.13978 698.67927  2      869
siesta:     -0.40557  -2.60678 698.67927  2      870
siesta:      0.59030   0.53175 705.96984  1      871
siesta:      2.63900   0.13978 705.96984  2      872
siesta:      0.40557   2.60678 705.96984  2      873
siesta:     -0.59030  -0.53175 703.53965  1      874
siesta:     -2.63900  -0.13978 703.53965  2      875
siesta:     -0.40557  -2.60678 703.53965  2      876
siesta:      0.59030   0.53175 710.83021  1      877
siesta:      2.63900   0.13978 710.83021  2      878
siesta:      0.40557   2.60678 710.83021  2      879
siesta:     -0.59030  -0.53175 708.40002  1      880
siesta:     -2.63900  -0.13978 708.40002  2      881
siesta:     -0.40557  -2.60678 708.40002  2      882
siesta:      0.59030   0.53175 715.69059  1      883
siesta:      2.63900   0.13978 715.69059  2      884
siesta:      0.40557   2.60678 715.69059  2      885
siesta:     -0.59030  -0.53175 713.26040  1      886
siesta:     -2.63900  -0.13978 713.26040  2      887
siesta:     -0.40557  -2.60678 713.26040  2      888
siesta:      0.59030   0.53175 720.55097  1      889
siesta:      2.63900   0.13978 720.55097  2      890
siesta:      0.40557   2.60678 720.55097  2      891
siesta:     -0.59030  -0.53175 718.12078  1      892
siesta:     -2.63900  -0.13978 718.12078  2      893
siesta:     -0.40557  -2.60678 718.12078  2      894
siesta:      0.59030   0.53175 725.41135  1      895
siesta:      2.63900   0.13978 725.41135  2      896
siesta:      0.40557   2.60678 725.41135  2      897
siesta:     -0.59030  -0.53175 722.98116  1      898
siesta:     -2.63900  -0.13978 722.98116  2      899
siesta:     -0.40557  -2.60678 722.98116  2      900
siesta:      0.59030   0.53175 730.27172  1      901
siesta:      2.63900   0.13978 730.27172  2      902
siesta:      0.40557   2.60678 730.27172  2      903
siesta:     -0.59030  -0.53175 727.84154  1      904
siesta:     -2.63900  -0.13978 727.84154  2      905
siesta:     -0.40557  -2.60678 727.84154  2      906
siesta:      0.59030   0.53175 735.13210  1      907
siesta:      2.63900   0.13978 735.13210  2      908
siesta:      0.40557   2.60678 735.13210  2      909
siesta:     -0.59030  -0.53175 732.70191  1      910
siesta:     -2.63900  -0.13978 732.70191  2      911
siesta:     -0.40557  -2.60678 732.70191  2      912
siesta:      0.59030   0.53175 739.99248  1      913
siesta:      2.63900   0.13978 739.99248  2      914
siesta:      0.40557   2.60678 739.99248  2      915
siesta:     -0.59030  -0.53175 737.56229  1      916
siesta:     -2.63900  -0.13978 737.56229  2      917
siesta:     -0.40557  -2.60678 737.56229  2      918
siesta:      0.59030   0.53175 744.85286  1      919
siesta:      2.63900   0.13978 744.85286  2      920
siesta:      0.40557   2.60678 744.85286  2      921
siesta:     -0.59030  -0.53175 742.42267  1      922
siesta:     -2.63900  -0.13978 742.42267  2      923
siesta:     -0.40557  -2.60678 742.42267  2      924
siesta:      0.59030   0.53175 749.71323  1      925
siesta:      2.63900   0.13978 749.71323  2      926
siesta:      0.40557   2.60678 749.71323  2      927
siesta:     -0.59030  -0.53175 747.28305  1      928
siesta:     -2.63900  -0.13978 747.28305  2      929
siesta:     -0.40557  -2.60678 747.28305  2      930
siesta:      0.59030   0.53175 754.57361  1      931
siesta:      2.63900   0.13978 754.57361  2      932
siesta:      0.40557   2.60678 754.57361  2      933
siesta:     -0.59030  -0.53175 752.14342  1      934
siesta:     -2.63900  -0.13978 752.14342  2      935
siesta:     -0.40557  -2.60678 752.14342  2      936
siesta:      0.59030   0.53175 759.43399  1      937
siesta:      2.63900   0.13978 759.43399  2      938
siesta:      0.40557   2.60678 759.43399  2      939
siesta:     -0.59030  -0.53175 757.00380  1      940
siesta:     -2.63900  -0.13978 757.00380  2      941
siesta:     -0.40557  -2.60678 757.00380  2      942
siesta:      0.59030   0.53175 764.29437  1      943
siesta:      2.63900   0.13978 764.29437  2      944
siesta:      0.40557   2.60678 764.29437  2      945
siesta:     -0.59030  -0.53175 761.86418  1      946
siesta:     -2.63900  -0.13978 761.86418  2      947
siesta:     -0.40557  -2.60678 761.86418  2      948
siesta:      0.59030   0.53175 769.15474  1      949
siesta:      2.63900   0.13978 769.15474  2      950
siesta:      0.40557   2.60678 769.15474  2      951
siesta:     -0.59030  -0.53175 766.72456  1      952
siesta:     -2.63900  -0.13978 766.72456  2      953
siesta:     -0.40557  -2.60678 766.72456  2      954
siesta:      0.59030   0.53175 774.01512  1      955
siesta:      2.63900   0.13978 774.01512  2      956
siesta:      0.40557   2.60678 774.01512  2      957
siesta:     -0.59030  -0.53175 771.58493  1      958
siesta:     -2.63900  -0.13978 771.58493  2      959
siesta:     -0.40557  -2.60678 771.58493  2      960
siesta:      0.59030   0.53175 778.87550  1      961
siesta:      2.63900   0.13978 778.87550  2      962
siesta:      0.40557   2.60678 778.87550  2      963
siesta:     -0.59030  -0.53175 776.44531  1      964
siesta:     -2.63900  -0.13978 776.44531  2      965
siesta:     -0.40557  -2.60678 776.44531  2      966
siesta:      0.59030   0.53175 783.73588  1      967
siesta:      2.63900   0.13978 783.73588  2      968
siesta:      0.40557   2.60678 783.73588  2      969
siesta:     -0.59030  -0.53175 781.30569  1      970
siesta:     -2.63900  -0.13978 781.30569  2      971
siesta:     -0.40557  -2.60678 781.30569  2      972
siesta:      0.59030   0.53175 788.59625  1      973
siesta:      2.63900   0.13978 788.59625  2      974
siesta:      0.40557   2.60678 788.59625  2      975
siesta:     -0.59030  -0.53175 786.16607  1      976
siesta:     -2.63900  -0.13978 786.16607  2      977
siesta:     -0.40557  -2.60678 786.16607  2      978
siesta:      0.59030   0.53175 793.45663  1      979
siesta:      2.63900   0.13978 793.45663  2      980
siesta:      0.40557   2.60678 793.45663  2      981
siesta:     -0.59030  -0.53175 791.02644  1      982
siesta:     -2.63900  -0.13978 791.02644  2      983
siesta:     -0.40557  -2.60678 791.02644  2      984
siesta:      0.59030   0.53175 798.31701  1      985
siesta:      2.63900   0.13978 798.31701  2      986
siesta:      0.40557   2.60678 798.31701  2      987
siesta:     -0.59030  -0.53175 795.88682  1      988
siesta:     -2.63900  -0.13978 795.88682  2      989
siesta:     -0.40557  -2.60678 795.88682  2      990
siesta:      0.59030   0.53175 803.17739  1      991
siesta:      2.63900   0.13978 803.17739  2      992
siesta:      0.40557   2.60678 803.17739  2      993
siesta:     -0.59030  -0.53175 800.74720  1      994
siesta:     -2.63900  -0.13978 800.74720  2      995
siesta:     -0.40557  -2.60678 800.74720  2      996
siesta:      0.59030   0.53175 808.03776  1      997
siesta:      2.63900   0.13978 808.03776  2      998
siesta:      0.40557   2.60678 808.03776  2      999
siesta:     -0.59030  -0.53175 805.60758  1     1000
siesta:     -2.63900  -0.13978 805.60758  2     1001
siesta:     -0.40557  -2.60678 805.60758  2     1002
siesta:      0.59030   0.53175 812.89814  1     1003
siesta:      2.63900   0.13978 812.89814  2     1004
siesta:      0.40557   2.60678 812.89814  2     1005
siesta:     -0.59030  -0.53175 810.46795  1     1006
siesta:     -2.63900  -0.13978 810.46795  2     1007
siesta:     -0.40557  -2.60678 810.46795  2     1008
siesta:      0.59030   0.53175 817.75852  1     1009
siesta:      2.63900   0.13978 817.75852  2     1010
siesta:      0.40557   2.60678 817.75852  2     1011
siesta:     -0.59030  -0.53175 815.32833  1     1012
siesta:     -2.63900  -0.13978 815.32833  2     1013
siesta:     -0.40557  -2.60678 815.32833  2     1014
siesta:      0.59030   0.53175 822.61890  1     1015
siesta:      2.63900   0.13978 822.61890  2     1016
siesta:      0.40557   2.60678 822.61890  2     1017
siesta:     -0.59030  -0.53175 820.18871  1     1018
siesta:     -2.63900  -0.13978 820.18871  2     1019
siesta:     -0.40557  -2.60678 820.18871  2     1020
siesta:      0.59030   0.53175 827.47927  1     1021
siesta:      2.63900   0.13978 827.47927  2     1022
siesta:      0.40557   2.60678 827.47927  2     1023
siesta:     -0.59030  -0.53175 825.04909  1     1024
siesta:     -2.63900  -0.13978 825.04909  2     1025
siesta:     -0.40557  -2.60678 825.04909  2     1026
siesta:      0.59030   0.53175 832.33965  1     1027
siesta:      2.63900   0.13978 832.33965  2     1028
siesta:      0.40557   2.60678 832.33965  2     1029
siesta:     -0.59030  -0.53175 829.90946  1     1030
siesta:     -2.63900  -0.13978 829.90946  2     1031
siesta:     -0.40557  -2.60678 829.90946  2     1032
siesta:      0.59030   0.53175 837.20003  1     1033
siesta:      2.63900   0.13978 837.20003  2     1034
siesta:      0.40557   2.60678 837.20003  2     1035
siesta:     -0.59030  -0.53175 834.76984  1     1036
siesta:     -2.63900  -0.13978 834.76984  2     1037
siesta:     -0.40557  -2.60678 834.76984  2     1038
siesta:      0.59030   0.53175 842.06041  1     1039
siesta:      2.63900   0.13978 842.06041  2     1040
siesta:      0.40557   2.60678 842.06041  2     1041
siesta:     -0.59030  -0.53175 839.63022  1     1042
siesta:     -2.63900  -0.13978 839.63022  2     1043
siesta:     -0.40557  -2.60678 839.63022  2     1044
siesta:      0.59030   0.53175 846.92078  1     1045
siesta:      2.63900   0.13978 846.92078  2     1046
siesta:      0.40557   2.60678 846.92078  2     1047
siesta:     -0.59030  -0.53175 844.49060  1     1048
siesta:     -2.63900  -0.13978 844.49060  2     1049
siesta:     -0.40557  -2.60678 844.49060  2     1050
siesta:      0.59030   0.53175 851.78116  1     1051
siesta:      2.63900   0.13978 851.78116  2     1052
siesta:      0.40557   2.60678 851.78116  2     1053
siesta:     -0.59030  -0.53175 849.35097  1     1054
siesta:     -2.63900  -0.13978 849.35097  2     1055
siesta:     -0.40557  -2.60678 849.35097  2     1056
siesta:      0.59030   0.53175 856.64154  1     1057
siesta:      2.63900   0.13978 856.64154  2     1058
siesta:      0.40557   2.60678 856.64154  2     1059
siesta:     -0.59030  -0.53175 854.21135  1     1060
siesta:     -2.63900  -0.13978 854.21135  2     1061
siesta:     -0.40557  -2.60678 854.21135  2     1062
siesta:      0.59030   0.53175 861.50192  1     1063
siesta:      2.63900   0.13978 861.50192  2     1064
siesta:      0.40557   2.60678 861.50192  2     1065
siesta:     -0.59030  -0.53175 859.07173  1     1066
siesta:     -2.63900  -0.13978 859.07173  2     1067
siesta:     -0.40557  -2.60678 859.07173  2     1068
siesta:      0.59030   0.53175 866.36229  1     1069
siesta:      2.63900   0.13978 866.36229  2     1070
siesta:      0.40557   2.60678 866.36229  2     1071
siesta:     -0.59030  -0.53175 863.93211  1     1072
siesta:     -2.63900  -0.13978 863.93211  2     1073
siesta:     -0.40557  -2.60678 863.93211  2     1074
siesta:      0.59030   0.53175 871.22267  1     1075
siesta:      2.63900   0.13978 871.22267  2     1076
siesta:      0.40557   2.60678 871.22267  2     1077
siesta:     -0.59030  -0.53175 868.79248  1     1078
siesta:     -2.63900  -0.13978 868.79248  2     1079
siesta:     -0.40557  -2.60678 868.79248  2     1080
siesta:      0.59030   0.53175 876.08305  1     1081
siesta:      2.63900   0.13978 876.08305  2     1082
siesta:      0.40557   2.60678 876.08305  2     1083
siesta:     -0.59030  -0.53175 873.65286  1     1084
siesta:     -2.63900  -0.13978 873.65286  2     1085
siesta:     -0.40557  -2.60678 873.65286  2     1086
siesta:      0.59030   0.53175 880.94343  1     1087
siesta:      2.63900   0.13978 880.94343  2     1088
siesta:      0.40557   2.60678 880.94343  2     1089
siesta:     -0.59030  -0.53175 878.51324  1     1090
siesta:     -2.63900  -0.13978 878.51324  2     1091
siesta:     -0.40557  -2.60678 878.51324  2     1092
siesta:      0.59030   0.53175 885.80380  1     1093
siesta:      2.63900   0.13978 885.80380  2     1094
siesta:      0.40557   2.60678 885.80380  2     1095
siesta:     -0.59030  -0.53175 883.37362  1     1096
siesta:     -2.63900  -0.13978 883.37362  2     1097
siesta:     -0.40557  -2.60678 883.37362  2     1098
siesta:      0.59030   0.53175 890.66418  1     1099
siesta:      2.63900   0.13978 890.66418  2     1100
siesta:      0.40557   2.60678 890.66418  2     1101
siesta:     -0.59030  -0.53175 888.23399  1     1102
siesta:     -2.63900  -0.13978 888.23399  2     1103
siesta:     -0.40557  -2.60678 888.23399  2     1104
siesta:      0.59030   0.53175 895.52456  1     1105
siesta:      2.63900   0.13978 895.52456  2     1106
siesta:      0.40557   2.60678 895.52456  2     1107
siesta:     -0.59030  -0.53175 893.09437  1     1108
siesta:     -2.63900  -0.13978 893.09437  2     1109
siesta:     -0.40557  -2.60678 893.09437  2     1110
siesta:      0.59030   0.53175 900.38494  1     1111
siesta:      2.63900   0.13978 900.38494  2     1112
siesta:      0.40557   2.60678 900.38494  2     1113
siesta:     -0.59030  -0.53175 897.95475  1     1114
siesta:     -2.63900  -0.13978 897.95475  2     1115
siesta:     -0.40557  -2.60678 897.95475  2     1116
siesta:      0.59030   0.53175 905.24531  1     1117
siesta:      2.63900   0.13978 905.24531  2     1118
siesta:      0.40557   2.60678 905.24531  2     1119
siesta:     -0.59030  -0.53175 902.81513  1     1120
siesta:     -2.63900  -0.13978 902.81513  2     1121
siesta:     -0.40557  -2.60678 902.81513  2     1122
siesta:      0.59030   0.53175 910.10569  1     1123
siesta:      2.63900   0.13978 910.10569  2     1124
siesta:      0.40557   2.60678 910.10569  2     1125
siesta:     -0.59030  -0.53175 907.67550  1     1126
siesta:     -2.63900  -0.13978 907.67550  2     1127
siesta:     -0.40557  -2.60678 907.67550  2     1128
siesta:      0.59030   0.53175 914.96607  1     1129
siesta:      2.63900   0.13978 914.96607  2     1130
siesta:      0.40557   2.60678 914.96607  2     1131
siesta:     -0.59030  -0.53175 912.53588  1     1132
siesta:     -2.63900  -0.13978 912.53588  2     1133
siesta:     -0.40557  -2.60678 912.53588  2     1134
siesta:      0.59030   0.53175 919.82645  1     1135
siesta:      2.63900   0.13978 919.82645  2     1136
siesta:      0.40557   2.60678 919.82645  2     1137
siesta:     -0.59030  -0.53175 917.39626  1     1138
siesta:     -2.63900  -0.13978 917.39626  2     1139
siesta:     -0.40557  -2.60678 917.39626  2     1140
siesta:      0.59030   0.53175 924.68683  1     1141
siesta:      2.63900   0.13978 924.68683  2     1142
siesta:      0.40557   2.60678 924.68683  2     1143
siesta:     -0.59030  -0.53175 922.25664  1     1144
siesta:     -2.63900  -0.13978 922.25664  2     1145
siesta:     -0.40557  -2.60678 922.25664  2     1146
siesta:      0.59030   0.53175 929.54720  1     1147
siesta:      2.63900   0.13978 929.54720  2     1148
siesta:      0.40557   2.60678 929.54720  2     1149
siesta:     -0.59030  -0.53175 927.11701  1     1150
siesta:     -2.63900  -0.13978 927.11701  2     1151
siesta:     -0.40557  -2.60678 927.11701  2     1152
siesta:      0.59030   0.53175 934.40758  1     1153
siesta:      2.63900   0.13978 934.40758  2     1154
siesta:      0.40557   2.60678 934.40758  2     1155
siesta:     -0.59030  -0.53175 931.97739  1     1156
siesta:     -2.63900  -0.13978 931.97739  2     1157
siesta:     -0.40557  -2.60678 931.97739  2     1158
siesta:      0.59030   0.53175 939.26796  1     1159
siesta:      2.63900   0.13978 939.26796  2     1160
siesta:      0.40557   2.60678 939.26796  2     1161
siesta:     -0.59030  -0.53175 936.83777  1     1162
siesta:     -2.63900  -0.13978 936.83777  2     1163
siesta:     -0.40557  -2.60678 936.83777  2     1164
siesta:      0.59030   0.53175 944.12834  1     1165
siesta:      2.63900   0.13978 944.12834  2     1166
siesta:      0.40557   2.60678 944.12834  2     1167
siesta:     -0.59030  -0.53175 941.69815  1     1168
siesta:     -2.63900  -0.13978 941.69815  2     1169
siesta:     -0.40557  -2.60678 941.69815  2     1170
siesta:      0.59030   0.53175 948.98871  1     1171
siesta:      2.63900   0.13978 948.98871  2     1172
siesta:      0.40557   2.60678 948.98871  2     1173
siesta:     -0.59030  -0.53175 946.55852  1     1174
siesta:     -2.63900  -0.13978 946.55852  2     1175
siesta:     -0.40557  -2.60678 946.55852  2     1176
siesta:      0.59030   0.53175 953.84909  1     1177
siesta:      2.63900   0.13978 953.84909  2     1178
siesta:      0.40557   2.60678 953.84909  2     1179
siesta:     -0.59030  -0.53175 951.41890  1     1180
siesta:     -2.63900  -0.13978 951.41890  2     1181
siesta:     -0.40557  -2.60678 951.41890  2     1182
siesta:      0.59030   0.53175 958.70947  1     1183
siesta:      2.63900   0.13978 958.70947  2     1184
siesta:      0.40557   2.60678 958.70947  2     1185
siesta:     -0.59030  -0.53175 956.27928  1     1186
siesta:     -2.63900  -0.13978 956.27928  2     1187
siesta:     -0.40557  -2.60678 956.27928  2     1188
siesta:      0.59030   0.53175 963.56985  1     1189
siesta:      2.63900   0.13978 963.56985  2     1190
siesta:      0.40557   2.60678 963.56985  2     1191
siesta:     -0.59030  -0.53175 961.13966  1     1192
siesta:     -2.63900  -0.13978 961.13966  2     1193
siesta:     -0.40557  -2.60678 961.13966  2     1194
siesta:      0.59030   0.53175 968.43022  1     1195
siesta:      2.63900   0.13978 968.43022  2     1196
siesta:      0.40557   2.60678 968.43022  2     1197
siesta:     -0.59030  -0.53175 966.00003  1     1198
siesta:     -2.63900  -0.13978 966.00003  2     1199
siesta:     -0.40557  -2.60678 966.00003  2     1200
siesta:      0.59030   0.53175 973.29060  1     1201
siesta:      2.63900   0.13978 973.29060  2     1202
siesta:      0.40557   2.60678 973.29060  2     1203
siesta:     -0.59030  -0.53175 970.86041  1     1204
siesta:     -2.63900  -0.13978 970.86041  2     1205
siesta:     -0.40557  -2.60678 970.86041  2     1206
siesta:      0.59030   0.53175 978.15098  1     1207
siesta:      2.63900   0.13978 978.15098  2     1208
siesta:      0.40557   2.60678 978.15098  2     1209
siesta:     -0.59030  -0.53175 975.72079  1     1210
siesta:     -2.63900  -0.13978 975.72079  2     1211
siesta:     -0.40557  -2.60678 975.72079  2     1212
siesta:      0.59030   0.53175 983.01136  1     1213
siesta:      2.63900   0.13978 983.01136  2     1214
siesta:      0.40557   2.60678 983.01136  2     1215
siesta:     -0.59030  -0.53175 980.58117  1     1216
siesta:     -2.63900  -0.13978 980.58117  2     1217
siesta:     -0.40557  -2.60678 980.58117  2     1218
siesta:      0.59030   0.53175 987.87173  1     1219
siesta:      2.63900   0.13978 987.87173  2     1220
siesta:      0.40557   2.60678 987.87173  2     1221
siesta:     -0.59030  -0.53175 985.44154  1     1222
siesta:     -2.63900  -0.13978 985.44154  2     1223
siesta:     -0.40557  -2.60678 985.44154  2     1224
siesta:      0.59030   0.53175 992.73211  1     1225
siesta:      2.63900   0.13978 992.73211  2     1226
siesta:      0.40557   2.60678 992.73211  2     1227
siesta:     -0.59030  -0.53175 990.30192  1     1228
siesta:     -2.63900  -0.13978 990.30192  2     1229
siesta:     -0.40557  -2.60678 990.30192  2     1230
siesta:      0.59030   0.53175 997.59249  1     1231
siesta:      2.63900   0.13978 997.59249  2     1232
siesta:      0.40557   2.60678 997.59249  2     1233
siesta:     -0.59030  -0.53175 995.16230  1     1234
siesta:     -2.63900  -0.13978 995.16230  2     1235
siesta:     -0.40557  -2.60678 995.16230  2     1236
siesta:      0.59030   0.531751002.45287  1     1237
siesta:      2.63900   0.139781002.45287  2     1238
siesta:      0.40557   2.606781002.45287  2     1239
siesta:     -0.59030  -0.531751000.02268  1     1240
siesta:     -2.63900  -0.139781000.02268  2     1241
siesta:     -0.40557  -2.606781000.02268  2     1242
siesta:      0.59030   0.531751007.31324  1     1243
siesta:      2.63900   0.139781007.31324  2     1244
siesta:      0.40557   2.606781007.31324  2     1245
siesta:     -0.59030  -0.531751004.88305  1     1246
siesta:     -2.63900  -0.139781004.88305  2     1247
[...]
siesta:   1535   -0.368112    0.070601   -0.001769
siesta:   1536    0.027286   -0.425970   -0.001972
siesta: ----------------------------------------
siesta:    Tot   -0.000011   -0.000013   -0.000000

siesta: Stress tensor (static) (eV/Ang**3):
siesta:    -0.000542    0.000420   -0.000002
siesta:     0.000420   -0.000758    0.000001
siesta:    -0.000002    0.000001    0.001788

siesta: Cell volume =     263372.800000 Ang**3

siesta: Pressure (static):
siesta:                Solid            Molecule  Units
siesta:          -0.00000177         -0.00000643  Ry/Bohr**3
siesta:          -0.00016271         -0.00059065  eV/Ang**3
siesta:          -0.26069738         -0.94634011  kBar
(Free)E+ p_basis*V_orbitals  =      -95287.551122
(Free)Eharris+ p_basis*V_orbitals  =      -95287.551139

siesta: Electric dipole (a.u.)  =    0.000001    0.000001    0.000000
siesta: Electric dipole (Debye) =    0.000002    0.000002    0.000000
>> End of run:   5-MAY-2017  17:23:20
************************************************************************************************************************
***             WIDEN YOUR WINDOW TO 120 CHARACTERS.  Use 'enscript -r -fCourier9' to print this document            ***
************************************************************************************************************************

---------------------------------------------- PETSc Performance Summary: ----------------------------------------------

/home/keceli/siesta-qetsc/arch-theta-opt-cray/siesta on a arch-theta-opt-cray named nid00720 with 4096 processors, by keceli Fri May  5 17:23:20 2017
Using Petsc Development GIT revision: v3.7.4-1993-gc616f45  GIT Date: 2016-11-19 14:30:01 -0600

                         Max       Max/Min        Avg      Total 
Time (sec):           9.101e+02      1.00006   9.101e+02
Objects:              2.884e+03      1.36618   2.313e+03
Flops:                2.101e+09   18967.78404   4.213e+08  1.726e+12
Flops/sec:            2.309e+06   18967.68689   4.629e+05  1.896e+09
MPI Messages:         9.873e+04      7.34449   3.115e+04  1.276e+08
MPI Message Lengths:  4.788e+07     21.35324   3.754e+02  4.790e+10
MPI Reductions:       3.382e+04      1.89493

Flop counting convention: 1 flop = 1 real number operation of type (multiply/divide/add/subtract)
                            e.g., VecAXPY() for real vectors of length N --> 2N flops
                            and VecAXPY() for complex vectors of length N --> 8N flops

Summary of Stages:   ----- Time ------  ----- Flops -----  --- Messages ---  -- Message Lengths --  -- Reductions --
                        Avg     %Total     Avg     %Total   counts   %Total     Avg         %Total   counts   %Total 
 0:      Main Stage: 2.6359e-04   0.0%  0.0000e+00   0.0%  0.000e+00   0.0%  0.000e+00        0.0%  0.000e+00   0.0% 
 1:     siesta_init: 7.4373e+00   0.8%  0.0000e+00   0.0%  0.000e+00   0.0%  0.000e+00        0.0%  0.000e+00   0.0% 
 2:   siesta_forces: 3.7943e+02  41.7%  0.0000e+00   0.0%  0.000e+00   0.0%  0.000e+00        0.0%  0.000e+00   0.0% 
 3:    siesta_solve: 4.3643e-04   0.0%  0.0000e+00   0.0%  0.000e+00   0.0%  0.000e+00        0.0%  0.000e+00   0.0% 
 4:    siesta2qetsc: 1.4911e-01   0.0%  0.0000e+00   0.0%  1.117e+06   0.9%  1.071e-01        0.0%  5.300e+01   0.3% 
 5: qetsc_setup_eps: 2.6950e-01   0.0%  6.2705e+08   0.0%  1.020e+07   8.0%  5.987e+01       15.9%  6.500e+01   0.4% 
 6: qetsc_solve_eps: 9.5070e+01  10.4%  1.7249e+12 100.0%  4.637e+07  36.3%  3.033e+02       80.8%  4.505e+03  25.2% 
 7:   qetsc_eigvals: 5.6457e-04   0.0%  0.0000e+00   0.0%  0.000e+00   0.0%  0.000e+00        0.0%  0.000e+00   0.0% 
 8:   qetsc_density: 8.2019e+01   9.0%  0.0000e+00   0.0%  6.990e+07  54.8%  1.210e+01        3.2%  1.730e+04  96.9% 
10:     siesta_misc: 3.0745e+02  33.8%  0.0000e+00   0.0%  0.000e+00   0.0%  0.000e+00        0.0%  0.000e+00   0.0% 
11:     siesta_move: 2.6252e-02   0.0%  0.0000e+00   0.0%  0.000e+00   0.0%  0.000e+00        0.0%  0.000e+00   0.0% 
12: siesta_analysis: 2.5242e-03   0.0%  0.0000e+00   0.0%  0.000e+00   0.0%  0.000e+00        0.0%  0.000e+00   0.0% 
13:     qetsc_clean: 5.7737e-06   0.0%  0.0000e+00   0.0%  0.000e+00   0.0%  0.000e+00        0.0%  0.000e+00   0.0% 
14:      siesta_end: 3.8219e+01   4.2%  0.0000e+00   0.0%  0.000e+00   0.0%  0.000e+00        0.0%  0.000e+00   0.0% 

------------------------------------------------------------------------------------------------------------------------
See the 'Profiling' chapter of the users' manual for details on interpreting output.
Phase summary info:
   Count: number of times phase was executed
   Time and Flops: Max - maximum over all processors
                   Ratio - ratio of maximum to minimum over all processors
   Mess: number of messages sent
   Avg. len: average message length (bytes)
   Reduct: number of global reductions
   Global: entire computation
   Stage: stages of a computation. Set stages with PetscLogStagePush() and PetscLogStagePop().
      %T - percent time in this phase         %F - percent flops in this phase
      %M - percent messages in this phase     %L - percent message lengths in this phase
      %R - percent reductions in this phase
   Total Mflop/s: 10e-6 * (sum of flops over all processors)/(max time over all processors)
------------------------------------------------------------------------------------------------------------------------
Event                Count      Time (sec)     Flops                             --- Global ---  --- Stage ---   Total
                   Max Ratio  Max     Ratio   Max  Ratio  Mess   Avg len Reduct  %T %F %M %L %R  %T %F %M %L %R Mflop/s
------------------------------------------------------------------------------------------------------------------------

--- Event Stage 0: Main Stage


--- Event Stage 1: siesta_init


--- Event Stage 2: siesta_forces


--- Event Stage 3: siesta_solve


--- Event Stage 4: siesta2qetsc

MatConvert             2 1.0 1.7061e-03 3.1 0.00e+00 0.0 0.0e+00 0.0e+00 0.0e+00  0  0  0  0  0   1  0  0  0  0     0
MatAssemblyBegin      10 1.0 1.0139e-01 1.2 0.00e+00 0.0 0.0e+00 0.0e+00 4.0e+01  0  0  0  0  0  62  0  0  0 75     0
MatAssemblyEnd        10 1.0 3.5867e-02 1.1 0.00e+00 0.0 1.1e+06 1.2e+01 1.1e+01  0  0  1  0  0  23  0100100 21     0
VecSet                 3 1.0 2.7299e-0454.5 0.00e+00 0.0 0.0e+00 0.0e+00 0.0e+00  0  0  0  0  0   0  0  0  0  0     0

--- Event Stage 5: qetsc_setup_eps

MatScale              16 1.0 2.6207e-03 9.3 1.95e+05 1.8 0.0e+00 0.0e+00 0.0e+00  0  0  0  0  0   0100  0  0  0 239268
MatAssemblyBegin      16 1.0 7.1321e-0250.2 0.00e+00 0.0 0.0e+00 0.0e+00 3.2e+01  0  0  0  0  0  14  0  0  0 49     0
MatAssemblyEnd        16 1.0 2.6386e-03 1.5 0.00e+00 0.0 4.1e+04 2.6e+02 1.0e+01  0  0  0  0  0   1  0  0  0 15     0
MatGetSubMatrice       8 1.0 2.0892e-01 1.6 0.00e+00 0.0 1.0e+07 7.5e+02 1.6e+01  0  0  8 16  0  59  0100100 25     0
MatAXPY                8 1.0 7.1025e-04 2.9 0.00e+00 0.0 0.0e+00 0.0e+00 0.0e+00  0  0  0  0  0   0  0  0  0  0     0
MatRedundantMat        8 1.0 2.8780e-01 1.2 0.00e+00 0.0 1.0e+07 7.5e+02 6.3e+01  0  0  8 16  0  96  0100100 97     0
MatMPIConcateSeq       8 1.0 1.2246e-01 1.6 0.00e+00 0.0 4.1e+04 2.6e+02 4.7e+01  0  0  0  0  0  37  0  0  0 72     0
VecSet                 1 1.0 4.2915e-05 0.0 0.00e+00 0.0 0.0e+00 0.0e+00 0.0e+00  0  0  0  0  0   0  0  0  0  0     0

--- Event Stage 6: qetsc_solve_eps

MatMult            15081 0.0 3.1009e+00 0.0 1.47e+09 0.0 3.2e+07 7.4e+02 0.0e+00  0 69 25 48  0   1 69 68 60  0 386452
MatSolve            5810 0.0 4.0830e+01 0.0 0.00e+00 0.0 1.2e+07 1.1e+03 1.5e+03  1  0  9 28  8  11  0 25 35 33     0
MatCholFctrSym         1 1.0 1.9377e-01 1.1 0.00e+00 0.0 0.0e+00 0.0e+00 5.0e+00  0  0  0  0  0   0  0  0  0  0     0
MatCholFctrNum        32 3.6 1.6765e+00 3.3 0.00e+00 0.0 0.0e+00 0.0e+00 0.0e+00  0  0  0  0  0   1  0  0  0  0     0
MatCopy               31 3.9 3.1932e-01 4.0 0.00e+00 0.0 0.0e+00 0.0e+00 7.1e+01  0  0  0  0  0   0  0  0  0  2     0
MatConvert             1 1.0 5.6720e-04 1.9 0.00e+00 0.0 0.0e+00 0.0e+00 0.0e+00  0  0  0  0  0   0  0  0  0  0     0
MatAssemblyBegin      67 3.2 4.1254e-01116.5 0.00e+00 0.0 0.0e+00 0.0e+00 1.1e+02  0  0  0  0  1   0  0  0  0  2     0
MatAssemblyEnd        67 3.2 4.9049e-02 3.2 0.00e+00 0.0 6.0e+05 2.6e+02 1.7e+02  0  0  0  0  1   0  0  1  0  4     0
MatGetRow          17480 3.7 3.1196e-01 7.0 0.00e+00 0.0 0.0e+00 0.0e+00 0.0e+00  0  0  0  0  0   0  0  0  0  0     0
MatGetSubMatrice       2 1.0 6.3665e-02 1.7 0.00e+00 0.0 2.5e+06 7.5e+02 4.0e+00  0  0  2  4  0   0  0  5  5  0     0
MatZeroEntries        31 3.9 1.6642e-03 7.0 0.00e+00 0.0 0.0e+00 0.0e+00 0.0e+00  0  0  0  0  0   0  0  0  0  0     0
MatAXPY               32 3.6 6.4106e-01 3.6 0.00e+00 0.0 5.2e+05 2.6e+02 2.0e+02  0  0  0  0  1   0  0  1  0  5     0
MatRedundantMat        2 1.0 9.4703e-02 1.1 0.00e+00 0.0 2.6e+06 7.4e+02 4.2e+01  0  0  2  4  0   0  0  6  5  1     0
MatMPIConcateSeq       2 1.0 4.8283e-02 1.8 0.00e+00 0.0 8.2e+04 2.6e+02 3.8e+01  0  0  0  0  0   0  0  0  0  1     0
VecDot              1106 0.0 9.2957e-02 0.0 4.06e+05 0.0 0.0e+00 0.0e+00 2.4e+02  0  0  0  0  1   0  0  0  0  5  3873
VecCopy             1519 0.0 1.7540e-03 0.0 0.00e+00 0.0 0.0e+00 0.0e+00 0.0e+00  0  0  0  0  0   0  0  0  0  0     0
VecSet             510893929.9 1.0822e-012784.7 0.00e+00 0.0 0.0e+00 0.0e+00 0.0e+00  0  0  0  0  0   0  0  0  0  0     0
VecScatterBegin    26701 0.0 1.1581e+00 0.0 0.00e+00 0.0 4.3e+07 8.5e+02 1.5e+03  0  0 34 76  8   0  0 93 95 33     0
VecScatterEnd      20891 0.0 8.5252e-01 0.0 0.00e+00 0.0 0.0e+00 0.0e+00 0.0e+00  0  0  0  0  0   0  0  0  0  0     0
VecSetRandom          11 0.0 5.5218e-04 0.0 0.00e+00 0.0 0.0e+00 0.0e+00 0.0e+00  0  0  0  0  0   0  0  0  0  0     0
EPSSetUp               9 1.0 1.2814e+00 1.0 0.00e+00 0.0 3.0e+06 6.8e+02 3.8e+02  0  0  2  4  2   1  0  6  5  8     0
EPSSolve               9 1.0 9.5093e+01 1.0 2.10e+09 0.0 4.6e+07 8.3e+02 4.5e+03 10100 36 81 25 100100100100100 18139
STSetUp               18 1.0 9.9351e-01 1.0 0.00e+00 0.0 3.7e+05 2.6e+02 2.0e+02  0  0  0  0  1   1  0  1  0  4     0
STApply             5810 0.0 4.2428e+01 0.0 5.64e+08 0.0 2.4e+07 9.4e+02 1.5e+03  1 27 19 47  8  11 27 52 58 33 10922
STMatSolve          5810 0.0 4.1396e+01 0.0 0.00e+00 0.0 1.2e+07 1.1e+03 1.5e+03  1  0  9 28  8  11  0 25 35 33     0
KSPSetUp              32 3.6 8.1301e-05 7.8 0.00e+00 0.0 0.0e+00 0.0e+00 0.0e+00  0  0  0  0  0   0  0  0  0  0     0
KSPSolve            5810 0.0 4.1066e+01 0.0 0.00e+00 0.0 1.2e+07 1.1e+03 1.5e+03  1  0  9 28  8  11  0 25 35 33     0
PCSetUp               32 3.6 1.8706e+00 2.7 0.00e+00 0.0 0.0e+00 0.0e+00 5.0e+00  0  0  0  0  0   1  0  0  0  0     0
PCApply             5810 0.0 4.0854e+01 0.0 0.00e+00 0.0 1.2e+07 1.1e+03 1.5e+03  1  0  9 28  8  11  0 25 35 33     0
BVCreate              44 8.8 3.9260e-02 2.0 0.00e+00 0.0 0.0e+00 0.0e+00 1.0e+02  0  0  0  0  1   0  0  0  0  2     0
BVCopy              1519 0.0 4.5960e-03 0.0 0.00e+00 0.0 0.0e+00 0.0e+00 0.0e+00  0  0  0  0  0   0  0  0  0  0     0
BVMultVec           8165 0.0 3.2322e-01 0.0 2.58e+08 0.0 0.0e+00 0.0e+00 0.0e+00  0 12  0  0  0   0 12  0  0  0 616349
BVMultInPlace        168 0.0 1.8297e-02 0.0 1.14e+08 0.0 0.0e+00 0.0e+00 0.0e+00  0  7  0  0  0   0  7  0  0  0 6747704
BVDotVec            8165 0.0 2.8369e+00 0.0 1.05e+09 0.0 1.7e+07 7.4e+02 2.1e+03  0 50 14 27 12   1 50 37 33 47 304133
BVOrthogonalizeV    4704 0.0 3.2656e+00 0.0 1.31e+09 0.0 1.7e+07 7.4e+02 2.1e+03  0 62 14 27 12   1 62 37 33 47 325210
BVScale             5810 0.0 4.6979e-02 0.0 1.07e+06 0.0 0.0e+00 0.0e+00 0.0e+00  0  0  0  0  0   0  0  0  0  0 23885
BVNormVec           1106 0.0 2.9673e-01 0.0 1.08e+08 0.0 2.0e+06 7.4e+02 2.4e+02  0  4  2  3  1   0  4  4  4  5 252439
BVSetRandom           11 0.0 6.2847e-04 0.0 0.00e+00 0.0 0.0e+00 0.0e+00 0.0e+00  0  0  0  0  0   0  0  0  0  0     0
DSSolve              154 0.0 7.2496e-01 0.0 0.00e+00 0.0 0.0e+00 0.0e+00 0.0e+00  0  0  0  0  0   0  0  0  0  0     0
DSVectors           7551 0.0 1.1054e-02 0.0 0.00e+00 0.0 0.0e+00 0.0e+00 0.0e+00  0  0  0  0  0   0  0  0  0  0     0
DSOther              168 0.0 1.3783e-02 0.0 0.00e+00 0.0 0.0e+00 0.0e+00 0.0e+00  0  0  0  0  0   0  0  0  0  0     0

--- Event Stage 7: qetsc_eigvals


--- Event Stage 8: qetsc_density

VecCopy            13824 1.0 3.1790e-02 3.0 0.00e+00 0.0 0.0e+00 0.0e+00 0.0e+00  0  0  0  0  0   0  0  0  0  0     0
VecSet                 1 1.0 4.1008e-05 0.0 0.00e+00 0.0 0.0e+00 0.0e+00 0.0e+00  0  0  0  0  0   0  0  0  0  0     0
VecScatterBegin    29152 1.0 6.7125e+01 1.0 0.00e+00 0.0 6.1e+07 2.4e+01 1.4e+04  7  0 48  3 77  81  0 87 94 80     0
VecScatterEnd      15328 1.0 6.2975e+00384.2 0.00e+00 0.0 0.0e+00 0.0e+00 0.0e+00  1  0  0  0  0   6  0  0  0  0     0
BVCopy             13824 1.0 1.1105e-01 2.5 0.00e+00 0.0 0.0e+00 0.0e+00 0.0e+00  0  0  0  0  0   0  0  0  0  0     0

--- Event Stage 9: Unknown


--- Event Stage 10: siesta_misc


--- Event Stage 11: siesta_move


--- Event Stage 12: siesta_analysis


--- Event Stage 13: qetsc_clean


--- Event Stage 14: siesta_end

------------------------------------------------------------------------------------------------------------------------

Memory usage is given in bytes:

Object Type          Creations   Destructions     Memory  Descendants' Mem.
Reports information only for process 0.

--- Event Stage 0: Main Stage


--- Event Stage 1: siesta_init


--- Event Stage 2: siesta_forces


--- Event Stage 3: siesta_solve


--- Event Stage 4: siesta2qetsc

              Matrix     9              0            0     0.
              Vector    19              1         1648     0.
      Vector Scatter     4              0            0     0.
           Index Set     4              4         8032     0.

--- Event Stage 5: qetsc_setup_eps

              Matrix     4              0            0     0.
              Vector     8              1         1648     0.
      Vector Scatter     2              0            0     0.
           Index Set    22             20        20096     0.
          EPS Solver     1              0            0     0.
  Spectral Transform     1              0            0     0.
       Krylov Solver     1              0            0     0.
      Preconditioner     1              0            0     0.
       Basis Vectors     1              0            0     0.
         PetscRandom     1              0            0     0.
              Region     1              0            0     0.
       Direct Solver     1              0            0     0.

--- Event Stage 6: qetsc_solve_eps

              Matrix    39             27      3238844     0.
              Vector   156            119       514408     0.
      Vector Scatter    24             17        18224     0.
           Index Set    55             50        87776     0.
          EPS Solver     1              0            0     0.
  Spectral Transform     1              0            0     0.
       Krylov Solver     1              0            0     0.
      Preconditioner     1              0            0     0.
       Basis Vectors    10              8         8448     0.
              Region     1              0            0     0.
       Direct Solver     1              0            0     0.

--- Event Stage 7: qetsc_eigvals


--- Event Stage 8: qetsc_density

              Vector    10              9        28080     0.
      Vector Scatter   577            576       617688     0.
           Index Set  1153           1153       917776     0.

--- Event Stage 9: Unknown


--- Event Stage 10: siesta_misc


--- Event Stage 11: siesta_move

              Matrix     0             25      2971796     0.
              Vector     0             63       497840     0.
      Vector Scatter     0             14        14176     0.
           Index Set     0              7         5488     0.
          EPS Solver     0              2       103044     0.
  Spectral Transform     0              2         1632     0.
       Krylov Solver     0              2         2336     0.
      Preconditioner     0              2         1952     0.
       Basis Vectors     0              3         3168     0.
         PetscRandom     0              1          638     0.
              Region     0              2         1312     0.
       Direct Solver     0              2       109992     0.

--- Event Stage 12: siesta_analysis


--- Event Stage 13: qetsc_clean


--- Event Stage 14: siesta_end

              Viewer     1              0            0     0.
========================================================================================================================
Average time to get PetscTime(): 4.05312e-07
Average time for MPI_Barrier(): 0.000460196
Average time for zero size MPI_Send(): 4.55102e-06
#PETSc Option Table entries:
-eps_interval -2.3,0.2
-eps_krylovschur_detect_zeros 0
-eps_krylovschur_partitions 64
-ioptbin 7
-ioptdensity 0
-ioptinertia 0
-ioptleft 2
-ioptwrite 1
-log_view
-mat_mumps_cntl_3 1e-12
-mat_mumps_icntl_13 1
-mat_mumps_icntl_23 0
-mat_mumps_icntl_24 1
-mat_mumps_icntl_28 1
-mat_mumps_icntl_7 5
-mat_type mpisbaij
#End of PETSc Option Table entries
Compiled without FORTRAN kernels
Compiled with full precision matrices (default)
sizeof(short) 2 sizeof(int) 4 sizeof(long) 8 sizeof(void*) 8 sizeof(PetscScalar) 8 sizeof(PetscInt) 4
Configure options: --known-level1-dcache-size=32768 --known-level1-dcache-linesize=64 --known-level1-dcache-assoc=8 --known-sizeof-char=1 --known-sizeof-void-p=8 --known-sizeof-short=2 --known-sizeof-int=4 --known-sizeof-long=8 --known-sizeof-long-long=8 --known-sizeof-float=4 --known-sizeof-double=8 --known-sizeof-size_t=8 --known-bits-per-byte=8 --known-memcmp-ok=1 --known-sizeof-MPI_Comm=4 --known-sizeof-MPI_Fint=4 --known-mpi-long-double=1 --known-mpi-int64_t=1 --known-mpi-c-double-complex=1 --known-sdot-returns-double=0 --known-snrm2-returns-double=0 --known-has-attribute-aligned=1 PETSC_ARCH=arch-theta-opt-cray --with-cc=cc --with-cxx=CC --with-fc=ftn --with-mpiexec=mpirun COPTFLAGS="-g -O3 -fp-model fast -xMIC-AVX512" CXXOPTFLAGS="-g -O3 -fp-model fast -xMIC-AVX512" FOPTFLAGS="-g -O3 -fp-model fast -xMIC-AVX512" --with-batch=1 known-mpi-shared-libraries=1 --with-debugging=0 --with-clib-autodetect=0 --with-fortranlib-autodetect=0 --with-cxxlib-autodetect=0 LIBS=-lstdc++ --download-metis=1 --download-mumps=1 --download-parmetis=1 --download-parms=0 --download-ptscotch=1 --download-ptscotch-commit=HEAD --download-scalapack=1 --with-memalign=64
-----------------------------------------
Libraries compiled on Thu May  4 04:27:34 2017 on thetalogin4 
Machine characteristics: Linux-3.12.60-52.63.1.12215.0.PTF.1017941-default-x86_64-with-SuSE-12-x86_64
Using PETSc directory: /home/keceli/petsc
Using PETSc arch: arch-theta-opt-cray
-----------------------------------------

Using C compiler: cc   -g -O3 -fp-model fast -xMIC-AVX512  ${COPTFLAGS} ${CFLAGS}
Using Fortran compiler: ftn  -g -O3 -fp-model fast -xMIC-AVX512   ${FOPTFLAGS} ${FFLAGS} 
-----------------------------------------

Using include paths: -I/home/keceli/petsc/arch-theta-opt-cray/include -I/home/keceli/petsc/include -I/home/keceli/petsc/include -I/home/keceli/petsc/arch-theta-opt-cray/include
-----------------------------------------

Using C linker: cc
Using Fortran linker: ftn
Using libraries: -Wl,-rpath,/home/keceli/petsc/arch-theta-opt-cray/lib -L/home/keceli/petsc/arch-theta-opt-cray/lib -lpetsc -Wl,-rpath,/home/keceli/petsc/arch-theta-opt-cray/lib -L/home/keceli/petsc/arch-theta-opt-cray/lib -lcmumps -ldmumps -lsmumps -lzmumps -lmumps_common -lpord -lscalapack -lparmetis -lmetis -lptesmumps -lptscotch -lptscotcherr -lscotch -lscotcherr -lrt -lm -lpthread -lz -ldl -lstdc++
-----------------------------------------

Application 3287845 resources: utime ~3695940s, stime ~21568s, Rss ~231464, inblocks ~0, outblocks ~0
