s.subSiesta: Submission time = 09s09m22h
s.subSiesta: Job name = qw128_s16_n2_c16_vesta
s.subSiesta: Number of nodes = 2
s.subSiesta: Number of cores = 32
s.subSiesta: Number of cores/node = 16
s.subSiesta: Number of slices = 16
s.subSiesta: Mapping = ABCDET
09s09m22h
-ioptbin 7
-ioptdensity 0
-ioptinertia 1
-ioptleft 2
-ioptwrite 1
-roptbuffer 0.1
-roptdiff 0.05
# A chain of identical atoms (instead of an xyz file) can be specified with the following options 
#-N 10 # Number of atoms
#-Z 8 # Atomic number
#-c 32 # Maximum number of interactions of an atom

# A petsc matrix (binary) can be given
#-method file
#-fA '/Volumes/s/matrices/petscbinary/graphene_xxs_A'
#-fB '/Volumes/s/matrices/petscbinary/graphene_xxs_B'
#-scfthresh 1.e-3

#PETSc options
-mat_type mpisbaij
-log_view
#-mat_view
#-memory_view
#-mat_mumps_icntl_13 1 #turn off scaLAPACK for matrix inertia
#-mat_mumps_icntl_24 1 #null pivot row detection for matrix inertia
#-mat_mumps_icntl_23 0
#-mat_mumps_icntl_28 1 # serial analysis
#-mat_mumps_icntl_28 2 #parallel analysis
#-mat_mumps_icntl_29 1 #ptscotch
#-mat_mumps_icntl_29 2 #parmetis
-mat_mumps_icntl_7 5 #metis
#-malloc_info 
#-mat_view ::ascii_info 
#-mat_getrow_uppertriangular 1
#-st_type sinvert 
#-st_ksp_type preonly 
#-st_pc_type cholesky 
#-st_pc_factor_mat_solver_package mumps 

#SLEPc options

#-eps_krylovschur_partitions 1  
-eps_interval -2.3,0.
#-eps_tol  1.e-8
-eps_krylovschur_detect_zeros 0
#-eps_purify 1
SystemName liquid_D2O_128
SystemLabel D2O_128

#UseTreeTimer .true.
DM.MixingWeight 0.3
DM.NumberPulay 3

SolutionMethod  qetsc #slepc0 for the older method
#SolutionMethod diagon
#BlockSize 23
WriteDM .false.
WriteDM.NetCDF .false.
WriteDMHS.NetCDF .false.
LongOutput .false.

#MaxSCFIterations 2
##################################################
# Do not change below this line                  #
##################################################

%block SuperCell
1 0 0
0 1 0
0 0 1
%endblock SuperCell

NumberOfAtoms 384
NumberOfSpecies 2

xc.functional GGA
xc.authors PBE 
MeshCutoff 150.0 Ry

%block ChemicalSpeciesLabel
  1   8  O
  2   1  H  
%endblock ChemicalSpeciesLabel

#%block AtomicMass
#  2   2.0
#%endblock AtomicMass

%Block PAO.Basis
O    3     -0.24233
n=2   0   2   E    23.36061     3.39721
     4.50769     2.64066
     1.00000     1.00000
n=2   1   2   E     2.78334     5.14253
     6.14996     2.59356
     1.00000     1.00000
n=3   2   1   E    63.98188     0.16104
     3.54403
     1.00000
H    2      0.46527
n=1   0   2   E    99.93138     2.59932
     4.20357     1.84463
     1.00000     1.00000
n=2   1   1   E    24.56504     2.20231
     3.52816
     1.00000
%EndBlock PAO.Basis

LatticeConstant 15.646046088993955 Ang
%block LatticeVectors   
  1.0  0.0  0.0
  0.0  1.0  0.0
  0.0  0.0  1.0
%endblock LatticeVectors   

AtomicCoordinatesFormat NotScaledCartesianAng
%block AtomicCoordinatesAndAtomicSpecies < coord128.data

Siesta Version: siesta-trunk-492
Architecture  : powerpc64-unknown-linux-gnu--Xlf
Compiler flags: mpixlf90_r -I/home/keceli/scratch2/petsc/include -I/home/keceli/scratch2/petssc/arch-xl/include -I/bgsys/drivers/V1R2M4/ppc64/comm/include -I/bgsys/drivers/V1R2M4/ppc64/comm/lib/xl -I/bgsys/drivers/V1R2M4/ppc64 -I/bgsys/drivers/V1R2M4/ppc64/comm/sys/include -I/bgsys/drivers/V1R2M4/ppc64/spi/include -I/bgsys/drivers/V1R2M4/ppc64/spi/include/kernel/cnk -I/home/keceli/scratch2/slepcfork/include -I/home/keceli/scratch2/slepcfork/arch-xl/include
PP flags      : -WF,-DMPI -WF,-DFC_HAVE_ABORT -WF,-DBSC_CELLXC -WF,-DMPI_TIMING 
PARALLEL version

* Running on   32 nodes in parallel
>> Start of run:  20-DEC-2016  22:10:05

                           ***********************       
                           *  WELCOME TO SIESTA  *       
                           ***********************       
WARNING: Siesta is reading its input from file INPUT_DEBUG

reinit: -----------------------------------------------------------------------
reinit: System Name: liquid_D2O_128
reinit: -----------------------------------------------------------------------
reinit: System Label: D2O_128                                                     
reinit: -----------------------------------------------------------------------

initatom: Reading input for the pseudopotentials and atomic orbitals ----------
Species number:   1 Atomic number:    8 Label: O
Species number:   2 Atomic number:    1 Label: H
 
Ground state valence configuration:   2s02  2p04
Reading pseudopotential information in formatted form from O.psf

Valence configuration for pseudopotential generation:
2s( 2.00) rc: 1.14
2p( 4.00) rc: 1.14
3d( 0.00) rc: 1.14
4f( 0.00) rc: 1.14
Ground state valence configuration:   1s01
Reading pseudopotential information in formatted form from H.psf

Valence configuration for pseudopotential generation:
1s( 0.60) rc: 1.25
2p( 0.00) rc: 1.25
3d( 0.00) rc: 1.25
4f( 0.00) rc: 1.25
For O, standard SIESTA heuristics set lmxkb to 3
 (one more than the basis l, including polarization orbitals).
Use PS.lmax or PS.KBprojectors blocks to override.
For H, standard SIESTA heuristics set lmxkb to 2
 (one more than the basis l, including polarization orbitals).
Use PS.lmax or PS.KBprojectors blocks to override.

<basis_specs>
===============================================================================
O                    Z=   8    Mass=  16.000        Charge=-0.24233    
Lmxo=2 Lmxkb= 3    BasisType=split      Semic=F
L=0  Nsemic=0  Cnfigmx=2
          n=1  nzeta=2  polorb=0
            splnorm:   0.15000    
               vcte:    23.361    
               rinn:    3.3972    
               qcoe:    0.0000    
               qyuk:    0.0000    
               qwid:   0.10000E-01
                rcs:    4.5077      2.6407    
            lambdas:    1.0000      1.0000    
L=1  Nsemic=0  Cnfigmx=2
          n=1  nzeta=2  polorb=0
            splnorm:   0.15000    
               vcte:    2.7833    
               rinn:    5.1425    
               qcoe:    0.0000    
               qyuk:    0.0000    
               qwid:   0.10000E-01
                rcs:    6.1500      2.5936    
            lambdas:    1.0000      1.0000    
L=2  Nsemic=0  Cnfigmx=3
          n=1  nzeta=1  polorb=0
            splnorm:   0.15000    
               vcte:    63.982    
               rinn:   0.16104    
               qcoe:    0.0000    
               qyuk:    0.0000    
               qwid:   0.10000E-01
                rcs:    3.5440    
            lambdas:    1.0000    
-------------------------------------------------------------------------------
L=0  Nkbl=1  erefs: 0.17977+309
L=1  Nkbl=1  erefs: 0.17977+309
L=2  Nkbl=1  erefs: 0.17977+309
L=3  Nkbl=1  erefs: 0.17977+309
===============================================================================
</basis_specs>

atom: Called for O                     (Z =   8)

read_vps: Pseudopotential generation method:
read_vps: ATM3      Troullier-Martins                       
Total valence charge:    6.00000

read_vps: Pseudopotential includes a core correction:
read_vps: Pseudo-core for xc-correction

xc_check: Exchange-correlation functional:
xc_check: GGA Perdew, Burke & Ernzerhof 1996
V l=0 = -2*Zval/r beyond r=  1.1278
V l=1 = -2*Zval/r beyond r=  1.1278
V l=2 = -2*Zval/r beyond r=  1.1278
V l=3 = -2*Zval/r beyond r=  1.1278
All V_l potentials equal beyond r=  1.1278
This should be close to max(r_c) in ps generation
All pots = -2*Zval/r beyond r=  1.1278

VLOCAL1: 99.0% of the norm of Vloc inside     34.126 Ry
VLOCAL1: 99.9% of the norm of Vloc inside     77.774 Ry
atom: Maximum radius for 4*pi*r*r*local-pseudopot. charge    1.37759
atom: Maximum radius for r*vlocal+2*Zval:    1.18566
GHOST: No ghost state for L =  0
GHOST: No ghost state for L =  1
GHOST: No ghost state for L =  2
GHOST: No ghost state for L =  3

KBgen: Kleinman-Bylander projectors: 
   l= 0   rc=  1.262145   el= -1.757696   Ekb=  9.253654   kbcos=  0.328369
   l= 1   rc=  1.262145   el= -0.664256   Ekb= -7.897175   kbcos= -0.393093
   l= 2   rc=  1.343567   el=  0.002031   Ekb= -1.922379   kbcos= -0.003517
   l= 3   rc=  1.394919   el=  0.003153   Ekb= -0.738278   kbcos= -0.000358

KBgen: Total number of  Kleinman-Bylander projectors:   16
atom: -------------------------------------------------------------------------

atom: SANKEY-TYPE ORBITALS:
atom: Selected multiple-zeta basis: split     

atom: basis set generated (by rescaling the valence charge)
atom: for an anion of charge  -0.2423

SPLIT: Orbitals with angular momentum L= 0

SPLIT: Basis orbitals for state 2s

   izeta = 1
                 lambda =    1.000000
                     rc =    4.574469
                 energy =   -1.754694
                kinetic =    1.490893
    potential(screened) =   -3.245588
       potential(ionic) =  -11.054474

   izeta = 2
                 rmatch =    2.639108
              splitnorm =    0.147036
                 energy =   -1.549986
                kinetic =    2.329570
    potential(screened) =   -3.879556
       potential(ionic) =  -12.328390

SPLIT: Orbitals with angular momentum L= 1

SPLIT: Basis orbitals for state 2p

   izeta = 1
                 lambda =    1.000000
                     rc =    6.174996
                 energy =   -0.657397
                kinetic =    4.283704
    potential(screened) =   -4.941101
       potential(ionic) =  -12.288569

   izeta = 2
                 rmatch =    2.639108
              splitnorm =    0.214885
                 energy =   -0.410839
                kinetic =    7.128014
    potential(screened) =   -7.538853
       potential(ionic) =  -16.113011

SPLIT: Orbitals with angular momentum L= 2

SPLIT: Basis orbitals for state 3d

   izeta = 1
                 lambda =    1.000000
                     rc =    3.562532
                 energy =    3.658838
                kinetic =    6.488135
    potential(screened) =   -2.829297
       potential(ionic) =  -10.001422
atom: Total number of Sankey-type orbitals: 13

atm_pop: Valence configuration (for local Pseudopot. screening):
 2s( 2.00)                                                            
 2p( 4.00)                                                            
 3d( 0.00)                                                            
Vna: chval, zval:    6.00000   6.00000

Vna:  Cut-off radius for the neutral-atom potential:   6.174996
comcore: Pseudo-core radius Rcore=  1.377587

atom: _________________________________________________________________________

<basis_specs>
===============================================================================
H                    Z=   1    Mass=  1.0100        Charge= 0.46527    
Lmxo=1 Lmxkb= 2    BasisType=split      Semic=F
L=0  Nsemic=0  Cnfigmx=1
          n=1  nzeta=2  polorb=0
            splnorm:   0.15000    
               vcte:    99.931    
               rinn:    2.5993    
               qcoe:    0.0000    
               qyuk:    0.0000    
               qwid:   0.10000E-01
                rcs:    4.2036      1.8446    
            lambdas:    1.0000      1.0000    
L=1  Nsemic=0  Cnfigmx=2
          n=1  nzeta=1  polorb=0
            splnorm:   0.15000    
               vcte:    24.565    
               rinn:    2.2023    
               qcoe:    0.0000    
               qyuk:    0.0000    
               qwid:   0.10000E-01
                rcs:    3.5282    
            lambdas:    1.0000    
-------------------------------------------------------------------------------
L=0  Nkbl=1  erefs: 0.17977+309
L=1  Nkbl=1  erefs: 0.17977+309
L=2  Nkbl=1  erefs: 0.17977+309
===============================================================================
</basis_specs>

atom: Called for H                     (Z =   1)

read_vps: Pseudopotential generation method:
read_vps: ATM 3.2.2 Troullier-Martins                       
Total valence charge:    0.60000

atom: Pseudopotential generated from an ionic configuration
atom: with net charge 0.40

xc_check: Exchange-correlation functional:
xc_check: GGA Perdew, Burke & Ernzerhof 1996
xc_check: WARNING: Pseudopotential generated with GGA revPBE functional
V l=0 = -2*Zval/r beyond r=  1.2343
V l=1 = -2*Zval/r beyond r=  1.2189
V l=2 = -2*Zval/r beyond r=  1.2189
All V_l potentials equal beyond r=  1.2343
This should be close to max(r_c) in ps generation
All pots = -2*Zval/r beyond r=  1.2343

VLOCAL1: 99.0% of the norm of Vloc inside     28.493 Ry
VLOCAL1: 99.9% of the norm of Vloc inside     64.935 Ry
atom: Maximum radius for 4*pi*r*r*local-pseudopot. charge    1.45251
atom: Maximum radius for r*vlocal+2*Zval:    1.21892
GHOST: No ghost state for L =  0
GHOST: No ghost state for L =  1
GHOST: No ghost state for L =  2

KBgen: Kleinman-Bylander projectors: 
   l= 0   rc=  1.364359   el= -0.835481   Ekb= -2.050473   kbcos= -0.374935
   l= 1   rc=  1.434438   el= -0.083696   Ekb= -0.439790   kbcos= -0.040392
   l= 2   rc=  1.470814   el= -0.018512   Ekb= -0.135383   kbcos= -0.004767

KBgen: Total number of  Kleinman-Bylander projectors:    9
atom: -------------------------------------------------------------------------

atom: SANKEY-TYPE ORBITALS:
atom: Selected multiple-zeta basis: split     

atom: basis set generated (by rescaling the valence charge)
atom: for a cation of charge   0.4653

SPLIT: Orbitals with angular momentum L= 0

SPLIT: Basis orbitals for state 1s

   izeta = 1
                 lambda =    1.000000
                     rc =    4.260636
                 energy =   -0.844786
                kinetic =    1.360018
    potential(screened) =   -2.204804
       potential(ionic) =   -2.290935

   izeta = 2
                 rmatch =    1.865767
              splitnorm =    0.575404
                 energy =    0.510436
                kinetic =    4.363202
    potential(screened) =   -3.852766
       potential(ionic) =   -3.849391

SPLIT: Orbitals with angular momentum L= 1

SPLIT: Basis orbitals for state 2p

   izeta = 1
                 lambda =    1.000000
                     rc =    3.576223
                 energy =    0.852340
                kinetic =    2.004908
    potential(screened) =   -1.152567
       potential(ionic) =   -1.298457
atom: Total number of Sankey-type orbitals:  5

atm_pop: Valence configuration (for local Pseudopot. screening):
 1s( 1.00)                                                            
 2p( 0.00)                                                            
Vna: chval, zval:    1.00000   1.00000

Vna:  Cut-off radius for the neutral-atom potential:   4.260636

atom: _________________________________________________________________________

prinput: Basis input ----------------------------------------------------------

PAO.BasisType split     

%block ChemicalSpeciesLabel
    1    8 O                       # Species index, atomic number, species label
    2    1 H                       # Species index, atomic number, species label
%endblock ChemicalSpeciesLabel

%block PAO.Basis                 # Define Basis set
O                     3  -0.242            # Label, l-shells, ionic net charge
 n=2   0   2                         # n, l, Nzeta 
   4.574      2.639   
   1.000      1.000   
 n=2   1   2                         # n, l, Nzeta 
   6.175      2.639   
   1.000      1.000   
 n=3   2   1                         # n, l, Nzeta 
   3.563   
   1.000   
H                     2   0.465            # Label, l-shells, ionic net charge
 n=1   0   2                         # n, l, Nzeta 
   4.261      1.866   
   1.000      1.000   
 n=2   1   1                         # n, l, Nzeta 
   3.576   
   1.000   
%endblock PAO.Basis

prinput: ----------------------------------------------------------------------

coor:   Atomic-coordinates input format  =     Cartesian coordinates
coor:                                          (in Angstroms)

siesta: Atomic coordinates (Bohr) and species
siesta:     26.49397   0.45353   4.66763  1        1
siesta:     26.96640   1.47399   3.25033  2        2
siesta:     25.77587   1.62517   5.85815  2        3
siesta:     20.33346  14.00288  21.97752  1        4
siesta:     21.22163  14.47531  20.46574  2        5
siesta:     18.59491  14.07847  21.50509  2        6
siesta:     11.07380   3.60938  13.00132  1        7
siesta:     11.41395   5.36682  12.83125  2        8
siesta:     11.58403   2.89128  11.43285  2        9
siesta:     14.09736  13.00132  25.01998  1       10
siesta:     14.15405  13.00132  26.83412  2       11
siesta:     13.53044  11.33836  24.56645  2       12
siesta:     17.17762   8.63605  20.03110  1       13
siesta:     16.83747   9.24076  18.34925  2       14
siesta:     18.95396   8.86282  20.23897  2       15
siesta:     22.75231   1.79524   9.37305  1       16
siesta:     21.27832   2.30547   8.48487  2       17
siesta:     23.45151   3.32592  10.03445  2       18
siesta:     27.17427  25.60580  26.85302  1       19
siesta:     28.61046  25.54911  27.94906  2       20
siesta:     27.57112  24.43417  25.53021  2       21
siesta:     24.09402  25.03888   4.02512  1       22
siesta:     23.67828  24.96329   2.26767  2       23
siesta:     24.75542  26.70184   4.28968  2       24
siesta:     28.81833  16.93195   4.57314  1       25
siesta:     29.17738  18.65160   4.13850  2       26
siesta:     29.02620  16.00599   3.04246  2       27
siesta:      3.17474   7.14317  26.24831  1       28
siesta:      1.79524   7.97465  25.45462  2       29
siesta:      4.62983   8.12583  25.81367  2       30
siesta:      1.56847   2.39995  27.68450  1       31
siesta:      0.15118   1.90862  26.68294  2       32
siesta:      2.22988   3.85504  26.85302  2       33
siesta:     21.97752   5.87705  29.00731  1       34
siesta:     21.33502   4.25189  28.51598  2       35
siesta:     21.18384   7.02978  27.87347  2       36
siesta:      2.81569  25.05778  28.47818  1       37
siesta:      3.53379  25.98374  29.85768  2       38
siesta:      3.38261  23.35702  28.74275  2       39
siesta:      2.05980   4.45976  19.10514  1       40
siesta:      0.77479   4.66763  17.83902  2       41
siesta:      3.36371   5.61249  18.61381  2       42
siesta:      9.12738  25.19006  29.38525  1       43
siesta:     10.37460  24.79322  28.13803  2       44
siesta:      7.54001  24.81211  28.59157  2       45
siesta:     20.99487   3.64717  16.91306  1       46
siesta:     19.33191   3.02356  17.30990  2       47
siesta:     21.78855   3.83615  18.51932  2       48
siesta:      2.04091  15.04223  21.58068  1       49
siesta:      1.11494  13.51155  21.42950  2       50
siesta:      2.47554  15.13671  23.33813  2       51
siesta:     16.47842   9.58092   2.28657  1       52
siesta:     17.95241   9.54312   3.34482  2       53
siesta:     16.74298  10.97931   1.19053  2       54
siesta:     25.90816   8.05024   4.72432  1       55
siesta:     26.00264   7.02978   6.21720  2       56
siesta:     26.55066   6.99199   3.40151  2       57
siesta:     10.56357  15.04223  21.08935  1       58
siesta:     12.32102  14.72097  21.37281  2       59
siesta:      9.80768  13.41706  21.08935  2       60
siesta:      7.97465  10.88483  12.77455  1       61
siesta:      7.02978   9.93996  11.56513  2       62
siesta:      7.36993  10.33681  14.38082  2       63
siesta:      2.30547  13.43596   7.38883  1       64
siesta:      1.58737  14.41862   6.04713  2       65
siesta:      2.83459  14.64538   8.61715  2       66
siesta:     12.66117   3.38261   7.67229  1       67
siesta:     12.30212   2.05980   6.50066  2       68
siesta:     12.49109   4.91329   6.70853  2       69
siesta:     26.55066   6.27389   9.44863  1       70
siesta:     25.43572   7.59670   9.95886  2       71
siesta:     28.19473   6.99199   9.59981  2       72
siesta:      7.89906   4.51645   3.28812  1       73
siesta:      8.86282   3.19364   4.06291  2       74
siesta:      6.29279   3.74166   2.91018  2       75
siesta:     28.85613  22.79011   3.74166  1       76
siesta:     27.43883  23.79166   4.25189  2       77
siesta:     30.29232  23.82946   4.08181  2       78
siesta:     15.38238  23.18695   9.52422  1       79
siesta:     16.47842  22.63893  10.84703  2       80
siesta:     16.47842  23.82946   8.23921  2       81
siesta:     23.64048  15.23120  17.51777  1       82
siesta:     24.35858  13.64383  17.08313  2       83
siesta:     24.45307  16.42173  16.42173  2       84
siesta:     23.45151   9.97776  10.90372  1       85
siesta:     21.73186   9.46753  11.13049  2       86
siesta:     23.39482  11.77300  11.01711  2       87
siesta:     11.01711   5.66918  18.25476  1       88
siesta:     11.41395   5.40462  16.49732  2       89
siesta:     11.09270   4.02512  18.97286  2       90
siesta:     22.35547  25.05778  19.72875  1       91
siesta:     21.20274  24.71763  21.08935  2       92
siesta:     23.43261  23.62159  19.67206  2       93
siesta:     21.76965  16.79967  27.74119  1       94
siesta:     21.46730  17.95241  26.38059  2       95
siesta:     22.80900  17.72564  28.89392  2       96
siesta:     21.59958  19.29411  23.22474  1       97
siesta:     20.42795  18.14138  22.44996  2       98
siesta:     23.22474  18.50043  22.99798  2       99
siesta:     20.22008   7.36993   4.81880  1      100
siesta:     21.71296   8.22031   5.40462  2      101
siesta:     20.71141   6.61404   3.25033  2      102
siesta:     16.42173   1.88973   2.19208  1      103
siesta:     15.79812   3.17474   1.07714  2      104
siesta:     14.94774   1.09604   2.85349  2      105
siesta:      8.46598  10.63916   3.53379  1      106
siesta:      9.24076  10.97931   1.94642  2      107
siesta:      8.84392  12.09425   4.55424  2      108
siesta:     17.10203  15.02333  29.66871  1      109
siesta:     15.89260  16.04378  28.76164  2      110
siesta:     18.70830  15.53355  29.02620  2      111
siesta:      5.78256   4.19519  12.35881  1      112
siesta:      4.89439   2.60782  12.32102  2      113
siesta:      7.48332   3.74166  12.73676  2      114
siesta:     14.04067  22.35547  16.95085  1      115
siesta:     13.34147  20.74920  16.49732  2      116
siesta:     14.17295  23.24364  15.38238  2      117
siesta:      8.42818  16.00599  26.19161  1      118
siesta:      6.76522  15.32568  26.45618  2      119
siesta:      9.01400  15.15561  24.69873  2      120
siesta:     -0.20787  22.35547  23.26254  1      121
siesta:      1.51178  22.52554  22.77121  2      122
siesta:     -1.02045  21.63737  21.82635  2      123
siesta:      1.49288   8.88172   9.33525  1      124
siesta:      1.92752  10.54468   8.76833  2      125
siesta:      3.00467   7.91796   9.16518  2      126
siesta:      4.81880  22.56334   8.10693  1      127
siesta:      4.83770  20.78700   7.78567  2      128
siesta:      5.78256  23.26254   6.74632  2      129
siesta:     16.72408   3.28812  20.10669  1      130
siesta:     16.62960   5.08337  20.06890  2      131
siesta:     15.02333   2.72121  19.86103  2      132
siesta:     29.91438  14.09736  14.75877  1      133
siesta:     29.08290  12.54779  15.13671  2      134
siesta:     28.61046  15.34458  14.85325  2      135
siesta:      8.18252  27.43883  18.78389  1      136
siesta:      6.40617  27.60891  19.02955  2      137
siesta:      8.42818  25.71918  18.31145  2      138
siesta:     27.77899   6.23610  21.73186  1      139
siesta:     29.21518   5.57469  20.86258  2      140
siesta:     27.11758   4.83770  22.65783  2      141
siesta:     29.68761  13.09581   1.07714  1      142
siesta:     28.15693  12.39661   0.39684  2      143
siesta:     30.65137  11.65961   1.58737  2      144
siesta:     19.40750  24.11291  24.01843  1      145
siesta:     17.87682  24.58535  23.16805  2      146
siesta:     19.27521  22.33657  24.22630  2      147
siesta:     23.75387  12.45330   3.68497  1      148
siesta:     23.79166  13.81390   4.87550  2      149
siesta:     24.67983  11.13049   4.47865  2      150
siesta:     22.29878  21.18384   9.01400  1      151
siesta:     20.93817  20.82479  10.16673  2      152
siesta:     21.97752  22.88459   8.46598  2      153
siesta:      6.85971  10.67696  25.98374  1      154
siesta:      7.23765  10.31791  24.26409  2      155
siesta:      8.06913   9.71320  26.92861  2      156
siesta:     13.13360  18.44373  28.89392  1      157
siesta:     11.50844  18.34925  28.11914  2      158
siesta:     12.98242  19.76654  30.12225  2      159
siesta:     26.19161   2.75900  25.09557  1      160
siesta:     24.45307   3.23143  24.90660  2      161
siesta:     26.49397   1.62517  23.71607  2      162
siesta:      8.46598  22.33657   4.53534  1      163
siesta:      7.86126  20.80589   3.76056  2      164
siesta:      8.22031  23.60269   3.26923  2      165
siesta:     25.37903  10.71475  16.27055  1      166
siesta:     24.45307   9.67540  17.42328  2      167
siesta:     24.81211  10.18563  14.62649  2      168
siesta:     20.50354   0.94486  23.43261  1      169
siesta:     19.97441   1.02045  25.15226  2      170
siesta:     19.10514   1.58737  22.48775  2      171
siesta:     14.02177   7.88016  24.11291  1      172
siesta:     15.04223   8.50377  22.75231  2      173
siesta:     13.36037   6.31169  23.50820  2      174
siesta:     11.71631  17.83902  16.93195  1      175
siesta:     10.96042  17.36659  18.51932  2      176
siesta:     10.60137  17.15872  15.68473  2      177
siesta:     17.65005   4.08181   8.08803  1      178
siesta:     17.97130   5.32903   6.80302  2      179
siesta:     15.85481   4.08181   8.25811  2      180
siesta:      6.51956  17.83902   2.72121  1      181
siesta:      5.65028  16.28945   3.04246  2      182
siesta:      5.97154  18.33035   1.07714  2      183
siesta:     18.57602  20.69251  13.19029  1      184
siesta:     18.25476  19.50198  14.51310  2      185
siesta:     18.57602  22.29878  14.02177  2      186
siesta:      3.42041  26.90971   4.25189  1      187
siesta:      4.38417  28.30811   4.89439  2      188
siesta:      2.04091  26.73964   5.40462  2      189
siesta:     29.19628  28.76164  14.77766  1      190
siesta:     28.13803  27.34435  14.49421  2      191
siesta:     30.21673  28.30811  16.19496  2      192
siesta:     12.73676  26.24831  13.19029  1      193
siesta:     13.60603  27.83568  13.11470  2      194
siesta:     13.03912  25.49242  11.56513  2      195
siesta:     26.26720  24.86881  12.83125  1      196
siesta:     24.62314  24.47196  12.18874  2      197
siesta:     27.36325  23.71607  11.96197  2      198
siesta:     11.24387  13.56824  29.70651  1      199
siesta:     12.50999  14.85325  29.91438  2      200
siesta:     10.05335  14.30523  28.55377  2      201
siesta:     22.58224  24.33968  28.49708  1      202
siesta:     21.37281  24.35858  27.13648  2      203
siesta:     24.15071  24.77432  27.70340  2      204
siesta:     11.82969   0.90707  20.59802  1      205
siesta:     11.30057   0.96376  22.33657  2      206
siesta:     10.73365  -0.32125  19.82323  2      207
siesta:      2.66451   4.34637   3.57158  1      208
siesta:      2.34326   6.10382   3.72276  2      209
siesta:      2.38106   3.96843   1.83304  2      210
siesta:     28.96951  18.34925  27.59001  1      211
siesta:     28.04355  18.51932  26.04044  2      212
siesta:     27.76009  18.67050  28.87503  2      213
siesta:      7.76678  25.64359  11.73520  1      214
siesta:      9.16518  26.32390  12.64227  2      215
siesta:      8.16362  23.88615  11.54623  2      216
siesta:     21.33502  26.60735  10.48798  1      217
siesta:     21.37281  26.66405  12.28322  2      218
siesta:     22.22319  28.08134   9.95886  2      219
siesta:      4.83770  10.43129  17.66895  1      220
siesta:      4.30858  12.15094  17.70674  2      221
siesta:      3.45820   9.54312  16.89416  2      222
siesta:      6.84081   7.82347   8.69274  1      223
siesta:      6.55735   6.33059   9.65650  2      224
siesta:      7.40773   7.21876   7.08648  2      225
siesta:     17.04534  10.56357  15.36348  1      226
siesta:     18.46263   9.69430  14.64538  2      227
siesta:     15.62804   9.99666  14.39972  2      228
siesta:     26.43728  28.11914  21.73186  1      229
siesta:     26.39948  27.74119  23.48931  2      230
siesta:     24.92550  27.36325  21.07045  2      231
siesta:     20.40905   1.05825  28.81833  1      232
siesta:     19.19963   1.53068  30.08445  2      233
siesta:     20.54133  -0.73699  28.96951  2      234
siesta:      9.78879  14.73987   6.16051  1      235
siesta:      9.46753  16.02488   4.93219  2      236
siesta:     11.56513  14.89105   6.50066  2      237
siesta:     24.49086  19.29411   1.28501  1      238
siesta:     23.92394  18.42484   2.77790  2      239
siesta:     24.58535  21.03266   1.79524  2      240
siesta:     24.37748  16.51621   7.16206  1      241
siesta:     26.07823  16.74298   6.55735  2      242
siesta:     23.71607  18.19807   7.31324  2      243
siesta:     15.15561  25.53021  21.63737  1      244
siesta:     14.75877  27.28766  21.35391  2      245
siesta:     15.21230  24.81211  19.97441  2      246
siesta:      3.26923  14.89105  26.55066  1      247
siesta:      2.68341  13.19029  26.58846  2      248
siesta:      2.11649  15.79812  27.57112  2      249
siesta:      0.86927   7.99354  15.09892  1      250
siesta:      1.20943   8.73054  13.47375  2      251
siesta:     -0.83148   7.44552  15.00443  2      252
siesta:      9.03289   6.42507  28.25142  1      253
siesta:      8.29590   5.99043  29.83879  2      254
siesta:     10.80924   6.21720  28.49708  2      255
siesta:     29.17738  11.18718  24.15071  1      256
siesta:     28.47818   9.82658  23.18695  2      257
siesta:     27.98686  11.47064  25.47352  2      258
siesta:     10.88483  26.15382   7.69119  1      259
siesta:     10.60137  24.39637   7.40773  2      260
siesta:      9.88327  26.53177   9.16518  2      261
siesta:     19.74765   9.88327  25.88926  1      262
siesta:     19.06734  11.31946  25.01998  2      263
siesta:     21.03266  10.56357  26.94751  2      264
siesta:      4.00622  20.01221  28.44039  1      265
siesta:      4.96998  18.99176  27.28766  2      266
siesta:      2.28657  19.70985  27.98686  2      267
siesta:     18.40594  24.47196   5.36682  1      268
siesta:     20.08780  23.82946   5.21565  2      269
siesta:     18.10358  25.32234   3.77945  2      270
siesta:     26.62625  18.10358  14.28634  1      271
siesta:     27.81678  19.29411  13.60603  2      272
siesta:     25.62470  17.61225  12.86904  2      273
siesta:      5.17785  28.87503  24.90660  1      274
siesta:      3.93063  28.28921  23.73497  2      275
siesta:      4.21409  29.61202  26.24831  2      276
siesta:      2.94797  20.65471  17.06423  1      277
siesta:      3.91173  21.33502  18.42484  2      278
siesta:      3.55269  18.95396  16.87526  2      279
siesta:      0.88817  21.37281  12.16984  1      280
siesta:      1.90862  22.29878  10.99821  2      281
siesta:      1.70075  21.61848  13.75721  2      282
siesta:      3.72276  17.61225  10.11004  1      283
siesta:      5.17785  17.36659  11.16829  2      284
siesta:      2.41885  18.14138  11.22498  2      285
siesta:      9.42974   2.58893  24.71763  1      286
siesta:      8.08803   1.37950  24.75542  2      287
siesta:      8.88172   3.89284  25.85146  2      288
siesta:      8.86282  20.69251  11.11159  1      289
siesta:      7.69119  20.69251   9.75099  2      290
siesta:      8.65495  19.04845  11.86748  2      291
siesta:     12.32102   8.03134   5.51800  1      292
siesta:     13.51155   8.27700   4.17630  2      293
siesta:     10.84703   8.91951   4.95108  2      294
siesta:      9.01400  20.67361  22.14760  1      295
siesta:      8.65495  21.80745  20.78700  2      296
siesta:      9.16518  19.04845  21.35391  2      297
siesta:     16.93195   0.52912  12.71786  1      298
siesta:     16.70519   2.02201  11.71631  2      299
siesta:     18.00910  -0.52912  11.71631  2      300
siesta:      9.27856   9.59981  20.93817  1      301
siesta:      7.55891   9.84548  20.40905  2      302
siesta:      9.76989   8.05024  20.12559  2      303
siesta:      3.15584   9.58092   3.38261  1      304
siesta:      2.66451   9.90217   5.10226  2      305
siesta:      4.85660  10.20453   3.26923  2      306
siesta:     13.85170  21.58068   4.04402  1      307
siesta:     15.25010  22.33657   4.87550  2      308
siesta:     12.39661  22.39326   4.76211  2      309
siesta:     26.02154  17.00754  21.80745  1      310
siesta:     27.62781  16.21386  22.09091  2      311
siesta:     25.41683  16.27055  20.27677  2      312
siesta:     26.58846  21.86414  18.25476  1      313
siesta:     26.70184  20.29567  17.36659  2      314
siesta:     26.55066  23.11136  16.95085  2      315
siesta:      2.21098  28.74275  20.10669  1      316
siesta:      0.43464  28.55377  20.44684  2      317
siesta:      2.49444  30.51909  20.23897  2      318
siesta:     11.73520  23.28144  25.60580  1      319
siesta:     10.75255  22.07201  24.67983  2      320
siesta:     12.88794  23.98063  24.37748  2      321
siesta:     25.22785  11.58403  28.17583  1      322
siesta:     24.62314  13.26588  28.00575  2      323
siesta:     24.45307  10.96042  29.66871  2      324
siesta:     27.00420   3.77945  16.32724  1      325
siesta:     27.98686   2.72121  15.25010  2      326
siesta:     25.32234   3.70386  15.64694  2      327
siesta:     14.30523   6.25500  28.83723  1      328
siesta:     15.19340   7.52111  29.76320  2      329
siesta:     14.15405   6.93530  27.17427  2      330
siesta:      4.93219  24.26409  21.05156  1      331
siesta:      3.85504  25.70029  20.76810  2      332
siesta:      5.95264  24.73652  22.44996  2      333
siesta:     17.72564  18.08469   4.06291  1      334
siesta:     17.53667  16.98864   2.62672  2      335
siesta:     16.45952  19.35080   3.83615  2      336
siesta:     18.06579  14.68318  12.85014  1      337
siesta:     17.47997  13.43596  14.02177  2      338
siesta:     17.02644  14.45641  11.37616  2      339
siesta:      5.61249   1.24722   6.87861  1      340
siesta:      4.89439   2.81569   6.31169  2      341
siesta:      4.72432   0.85038   8.39039  2      342
siesta:      4.34637  15.85481  16.96975  1      343
siesta:      3.70386  15.83591  18.67050  2      344
siesta:      3.04246  15.13671  15.96819  2      345
siesta:     12.45330   8.97620  12.33992  1      346
siesta:     10.84703   9.73209  12.66117  2      347
siesta:     12.69896   9.18407  10.56357  2      348
siesta:     22.37437   9.14628  19.86103  1      349
siesta:     22.43106  10.37460  21.20274  2      350
siesta:     23.43261   7.80457  20.42795  2      351
siesta:     14.62649  15.96819   8.40928  1      352
siesta:     13.09581  16.79967   8.90061  2      353
siesta:     15.38238  17.08313   7.21876  2      354
siesta:      0.01890  27.23096   8.12583  1      355
siesta:      0.94486  28.17583   9.35415  2      356
siesta:     -0.96376  28.47818   7.23765  2      357
siesta:      8.82502  22.63893  17.02644  1      358
siesta:      8.48487  22.97908  15.28789  2      359
siesta:     10.60137  22.86570  17.19651  2      360
siesta:     15.81701  10.62027   8.01244  1      361
siesta:     14.58869   9.95886   6.85971  2      362
siesta:     15.81701  12.39661   7.72898  2      363
siesta:     11.50844  29.47974   4.15740  1      364
siesta:     10.97931  28.78054   2.57003  2      365
siesta:     11.01711  28.25142   5.38572  2      366
siesta:     19.38860  25.56800  15.51466  1      367
siesta:     20.18228  25.39793  17.12093  2      368
siesta:     19.12404  27.34435  15.32568  2      369
siesta:     23.26254  15.04223  11.75410  1      370
siesta:     21.56178  15.17451  12.32102  2      371
siesta:     23.16805  15.30679   9.95886  2      372
siesta:     19.10514   7.84237  10.99821  1      373
siesta:     18.67050   6.40617   9.97776  2      374
siesta:     18.16028   9.20297  10.28011  2      375
siesta:     26.62625   4.04402   1.28501  1      376
siesta:     24.92550   4.08181   0.66140  2      377
siesta:     27.60891   3.32592  -0.05669  2      378
siesta:      3.32592  29.34746  11.67851  1      379
siesta:      4.64873  28.19473  12.15094  2      380
siesta:      1.88973  28.81833  12.64227  2      381
siesta:      8.10693  16.10047  13.19029  1      382
siesta:      6.97309  16.51621  14.53200  2      383
siesta:      8.06913  14.28634  13.13360  2      384

siesta: System type = bulk      

initatomlists: Number of atoms, orbitals, and projectors:    384  2944  4352

siesta: ******************** Simulation parameters ****************************
siesta:
siesta: The following are some of the parameters of the simulation.
siesta: A complete list of the parameters used, including default values,
siesta: can be found in file out.fdf
siesta:
redata: Non-Collinear-spin run           =     F
redata: SpinPolarized (Up/Down) run      =     F
redata: Number of spin components        =     1
redata: Long output                      =     F
redata: Number of Atomic Species         =        2
redata: Charge density info will appear in .RHO file
redata: Write Mulliken Pop.              =     NO
redata: Mesh Cutoff                      =   150.0000  Ry
redata: Net charge of the system         =     0.0000 |e|
redata: Min. number of SCF Iter          =        0
redata: Max. number of SCF Iter          =       50
redata: Mix DM or H after convergence    =     F
redata: Recompute H after scf cycle      =     F
redata: Performing Pulay mixing using    =     3 iterations
redata: Mix DM in first SCF step ?       =     F
redata: Write Pulay info on disk?        =     F
redata: Discard 1st Pulay DM after  kick =     F
redata: New DM Mixing Weight             =     0.3000
redata: New DM Occupancy tolerance       = 0.000000000001
redata: No kicks to SCF
redata: DM Mixing Weight for Kicks       =     0.5000
redata: DM Tolerance for SCF             =     0.000100
redata: Require (free) Energy convergence in SCF =     F
redata: DM (free)Energy tolerance for SCF =     0.000010 eV
redata: Require Harris convergence for SCF =     F
redata: DM Harris energy tolerance for SCF =     0.000010 eV
redata: Using Saved Data (generic)   =     F
redata: Use continuation files for DM    =     F
redata: Neglect nonoverlap interactions  =     F
redata: Method of Calculation            =     QETSc
redata: Fix the spin of the system       =     F
redata: Dynamics option                  =     Single-point calculation
redata: ***********************************************************************
Total number of electrons:  1024.000000
Total ionic charge:  1024.000000

* ProcessorY, Blocksize:    4  92


* Orbital distribution balance (max,min):    92    92

 Kpoints in:  1 . Kpoints trimmed:  1

siesta: k-grid: Number of k-points =     1
siesta: k-grid: Cutoff (effective) =     7.823 Ang
siesta: k-grid: Supercell and displacements
siesta: k-grid:    1   0   0      0.000
siesta: k-grid:    0   1   0      0.000
siesta: k-grid:    0   0   1      0.000

                     ====================================
                        Single-point calculation
                     ====================================

outcell: Unit cell vectors (Ang):
       15.646046    0.000000    0.000000
        0.000000   15.646046    0.000000
        0.000000    0.000000   15.646046

outcell: Cell vector modules (Ang)   :   15.646046   15.646046   15.646046
outcell: Cell angles (23,13,12) (deg):     90.0000     90.0000     90.0000
outcell: Cell volume (Ang**3)        :   3830.1327
New_DM. Step:     1
Initializing Density Matrix...
New grid distribution:   1
           1       1:   60    1:   15    1:    8
           2       1:   60    1:   15    9:   16
           3       1:   60    1:   15   17:   24
           4       1:   60    1:   15   25:   32
           5       1:   60    1:   15   33:   39
           6       1:   60    1:   15   40:   46
           7       1:   60    1:   15   47:   53
           8       1:   60    1:   15   54:   60
           9       1:   60   16:   30    1:    8
          10       1:   60   16:   30    9:   16
          11       1:   60   16:   30   17:   24
          12       1:   60   16:   30   25:   32
          13       1:   60   16:   30   33:   39
          14       1:   60   16:   30   40:   46
          15       1:   60   16:   30   47:   53
          16       1:   60   16:   30   54:   60
          17       1:   60   31:   45    1:    8
          18       1:   60   31:   45    9:   16
          19       1:   60   31:   45   17:   24
          20       1:   60   31:   45   25:   32
          21       1:   60   31:   45   33:   39
          22       1:   60   31:   45   40:   46
          23       1:   60   31:   45   47:   53
          24       1:   60   31:   45   54:   60
          25       1:   60   46:   60    1:    8
          26       1:   60   46:   60    9:   16
          27       1:   60   46:   60   17:   24
          28       1:   60   46:   60   25:   32
          29       1:   60   46:   60   33:   39
          30       1:   60   46:   60   40:   46
          31       1:   60   46:   60   47:   53
          32       1:   60   46:   60   54:   60

InitMesh: MESH =   120 x   120 x   120 =     1728000
InitMesh: (bp) =    60 x    60 x    60 =      216000
InitMesh: Mesh cutoff (required, used) =   150.000   162.575 Ry
ExtMesh (bp) on 0 =   112 x    67 x    60 =      450240
New grid distribution:   2
           1      30:   60   16:   29    1:   14
           2       1:   29    1:   15   14:   28
           3      30:   60    1:   16   15:   28
           4      31:   60    1:   17   29:   44
           5       1:   30    1:   16   29:   46
           6      30:   60    1:   15    1:   14
           7       1:   30    1:   17   47:   60
           8       1:   29    1:   15    1:   13
           9       1:   28   30:   45    1:   15
          10       1:   29   16:   29   14:   28
          11       1:   28   30:   46   16:   28
          12       1:   30   17:   30   29:   46
          13      31:   60   18:   30   29:   44
          14      30:   60   17:   29   15:   28
          15      31:   60    1:   16   45:   60
          16      31:   60   17:   30   45:   60
          17      28:   60   47:   60   29:   44
          18      29:   60   30:   43    1:   14
          19      29:   60   30:   45   15:   28
          20       1:   27   31:   44   29:   43
          21      28:   60   31:   46   29:   44
          22       1:   30   18:   30   47:   60
          23      28:   60   31:   44   45:   60
          24       1:   27   31:   44   44:   60
          25      29:   60   44:   60    1:   14
          26       1:   28   46:   60    1:   15
          27      29:   60   46:   60   15:   28
          28       1:   29   16:   29    1:   13
          29       1:   27   45:   60   29:   43
          30       1:   28   47:   60   16:   28
          31      28:   60   45:   60   45:   60
          32       1:   27   45:   60   44:   60
New grid distribution:   3
           1      31:   60   16:   30   46:   60
           2      31:   60   46:   60   46:   60
           3      31:   60   16:   30    1:   15
           4      31:   60   46:   60    1:   15
           5      31:   60    1:   15   31:   45
           6      31:   60   31:   45   46:   60
           7      31:   60    1:   15    1:   15
           8      31:   60   31:   45    1:   15
           9      31:   60    1:   15   46:   60
          10       1:   30   46:   60   46:   60
          11      31:   60   16:   30   16:   30
          12       1:   30   46:   60    1:   15
          13      31:   60   16:   30   31:   45
          14       1:   30   31:   45   46:   60
          15      31:   60    1:   15   16:   30
          16       1:   30   31:   45    1:   15
          17       1:   30   16:   30   31:   45
          18       1:   30   16:   30    1:   15
          19      31:   60   31:   45   16:   30
          20       1:   30   31:   45   31:   45
          21       1:   30    1:   15   31:   45
          22      31:   60   31:   45   31:   45
          23       1:   30    1:   15    1:   15
          24       1:   30   46:   60   16:   30
          25       1:   30   16:   30   46:   60
          26       1:   30   16:   30   16:   30
          27      31:   60   46:   60   16:   30
          28       1:   30   46:   60   31:   45
          29       1:   30    1:   15   46:   60
          30      31:   60   46:   60   31:   45
          31       1:   30    1:   15   16:   30
          32       1:   30   31:   45   16:   30
Setting up quadratic distribution...
ExtMesh (bp) on 0 =    83 x    66 x    66 =      361548
PhiOnMesh: Number of (b)points on node 0 =                 6076
PhiOnMesh: nlist on node 0 =               234645
QETSC: Last update           = Dec 15, 2016
QETSC: Number of ranks       =          32
QETSC: Number of slices      =          16
QETSC: Number of ranks/slice =           2
QETSC: Number of evals/slice =  32.00
QETSC: Number of req. evals  =         512
QETSC: Number of rows (all)  =        2944
QETSC: Number of rows (max)  =          92
QETSC: Number of rows (min)  =          92
QETSC: Density option        =           0
QETSC: Bin type given        =           7
QETSC: Inertia type          =           1
QETSC: Infinity type         =           2
QETSC: Write option          =           1
QETSC: Bin buffer given      =   0.10
QETSC: Diff thresh           =   0.05
QETSC: Number of nonzeros    =      808032
QETSC: Nonzero % (all)       =   9.32
QETSC: Nonzero % (max)       =   9.81
QETSC: Nonzero % (min)       =   8.71
 QETSC: Shifts, inertias         =
      -INF     0
    -2.300     0
    -2.147   128
    -1.993   128
    -1.840   128
    -1.687   128
    -1.533   128
    -1.380   128
    -1.227   256
    -1.073   380
    -0.920   512
    -0.767   512
    -0.613   512
    -0.460   512
    -0.307   512
    -0.153   512
     0.000   512
 QETSc: Custers,iter,crange,npcmax,trial 1 0.440033148000000054E-01 68 9
-2.2568750000000000E+00
-2.2125520833333332E+00
-2.1682291666666664E+00
-2.1478645833333330E+00
-1.3368749999999998E+00
-1.2925520833333333E+00
-1.2482291666666665E+00
-1.2031720430107526E+00
-1.1586559139784944E+00
-1.1141397849462364E+00
-1.0698484848484848E+00
-1.0257070707070706E+00
-9.8156565656565653E-01
-9.3742424242424238E-01
-9.2232323232323221E-01
 QETSC: Bins             =
                   -INF
-2.2999999999999998E+00
-2.2480104166666668E+00
-2.2036875000000000E+00
-2.1641562499999996E+00
-1.9856666666666662E+00
-1.3280104166666664E+00
-1.2836874999999999E+00
-1.2392177419354837E+00
-1.1942688172043010E+00
-1.1497526881720428E+00
-1.1052815249266861E+00
-1.0610202020202020E+00
-1.0168787878787877E+00
-9.7273737373737368E-01
-9.3440404040404035E-01
-9.1999999999999993E-01
QETSC: Started iter            1
QETSC: Bin type used         =           7
QETSC: Buffer used           =   0.0000000000000000E+00
QETSC: EPS interval          =      -INF,    -0.920
QETSC: Inertia type          =           1
SLEPc: EPSSolve time = 0 3.660e-06
SLEPc: EPSSolve time = 12 5.340e-06
SLEPc: EPSSolve time = 3 2.334e-06
SLEPc: EPSSolve time = 8 2.421e-06
SLEPc: EPSSolve time = 4 1.843e-06
SLEPc: EPSSolve time = 15 4.325e-06
SLEPc: EPSSolve time = 5 9.136e+00
SLEPc: EPSSolve time = 9 1.102e+01
SLEPc: EPSSolve time = 7 1.104e+01
SLEPc: EPSSolve time = 11 1.349e+01
SLEPc: EPSSolve time = 2 1.353e+01
SLEPc: EPSSolve time = 14 1.594e+01
SLEPc: EPSSolve time = 10 1.924e+01
SLEPc: EPSSolve time = 13 2.640e+01
SLEPc: EPSSolve time = 6 2.692e+01
SLEPc: EPSSolve time = 1 2.811e+01
 QETSC: Eigenvalues         =
-2.2942690628581643E+00
-2.2915884994217031E+00
-2.2896858110285705E+00
-2.2887702009403648E+00
-2.2871893855683743E+00
-2.2864442651962453E+00
-2.2861183249658010E+00
-2.2846526193598433E+00
-2.2842757447009503E+00
-2.2838849403153647E+00
-2.2832597376925086E+00
-2.2826202848733481E+00
-2.2817977344205049E+00
-2.2807723115576160E+00
-2.2799192958388650E+00
-2.2796736362043131E+00
-2.2794625646534441E+00
-2.2790387687023212E+00
-2.2787413898837761E+00
-2.2783042952985619E+00
-2.2777764625635633E+00
-2.2770836314175744E+00
-2.2762865963685033E+00
-2.2762324003593393E+00
-2.2753415859596315E+00
-2.2749900340988045E+00
-2.2743175385671575E+00
-2.2738690925699685E+00
-2.2736510144693454E+00
-2.2731601396778718E+00
-2.2722736355734794E+00
-2.2718626563783721E+00
-2.2716372485707570E+00
-2.2710654791677287E+00
-2.2707219991903540E+00
-2.2705307103435457E+00
-2.2702128741747583E+00
-2.2697960991554087E+00
-2.2694817321788685E+00
-2.2692816488944274E+00
-2.2688425602110254E+00
-2.2680687756515892E+00
-2.2679429933377628E+00
-2.2676212969874903E+00
-2.2672988907711846E+00
-2.2669586985697232E+00
-2.2668328576681636E+00
-2.2664664309728049E+00
-2.2656407982521962E+00
-2.2653840999840327E+00
-2.2649376208451120E+00
-2.2647348708304706E+00
-2.2644244984389941E+00
-2.2635433553230802E+00
-2.2628490004930746E+00
-2.2624087521833269E+00
-2.2623506366917070E+00
-2.2617181215804538E+00
-2.2612513005171948E+00
-2.2609308311998157E+00
-2.2604805977944333E+00
-2.2600941457329071E+00
-2.2597923696226134E+00
-2.2594101258063630E+00
-2.2591144678915795E+00
-2.2588591469354466E+00
-2.2583724585643217E+00
-2.2580516869622715E+00
-2.2580424795069711E+00
-2.2573448842310824E+00
-2.2569543881446124E+00
-2.2564376889813595E+00
-2.2559933633951754E+00
-2.2558656814600195E+00
-2.2553007672816419E+00
-2.2550969554613447E+00
-2.2547972045675024E+00
-2.2546543720997132E+00
-2.2542411457914318E+00
-2.2539680889008764E+00
-2.2535887348866335E+00
-2.2534487633497688E+00
-2.2526824243218555E+00
-2.2524086470276856E+00
-2.2520019439714871E+00
-2.2513253251960545E+00
-2.2508525752879787E+00
-2.2506949894694852E+00
-2.2503018746960923E+00
-2.2497046828205249E+00
-2.2492648373470421E+00
-2.2491269551953459E+00
-2.2488743932046766E+00
-2.2483663850273081E+00
-2.2480622530948624E+00
-2.2477776116546497E+00
-2.2474912365676261E+00
-2.2472005157386827E+00
-2.2464806025749602E+00
-2.2458533768716458E+00
-2.2455471228788260E+00
-2.2453992139843959E+00
-2.2450032156242807E+00
-2.2448901664043515E+00
-2.2446090978846907E+00
-2.2442362860927108E+00
-2.2438517150039701E+00
-2.2433067158884037E+00
-2.2432047274368609E+00
-2.2428937088301861E+00
-2.2418899504623222E+00
-2.2414957006598648E+00
-2.2413577556944180E+00
-2.2408570790729430E+00
-2.2400244344608158E+00
-2.2399512944146278E+00
-2.2396231875987178E+00
-2.2391501246594041E+00
-2.2389536954495526E+00
-2.2388145908805179E+00
-2.2381296113895481E+00
-2.2375063830523838E+00
-2.2367386846868400E+00
-2.2364835818605791E+00
-2.2362797727998407E+00
-2.2356807818379059E+00
-2.2352029993864848E+00
-2.2340754124407645E+00
-1.3450505335226490E+00
-1.3381209246633070E+00
-1.3370903547836865E+00
-1.3360518880024741E+00
-1.3350334222278888E+00
-1.3338060640958207E+00
-1.3328997541346199E+00
-1.3319546925452803E+00
-1.3315511895013430E+00
-1.3310438176407771E+00
-1.3304846795488952E+00
-1.3294713142910446E+00
-1.3282467512102436E+00
-1.3266832116167797E+00
-1.3260468933902514E+00
-1.3256506200547478E+00
-1.3251920441297040E+00
-1.3247084077709066E+00
-1.3237405619325378E+00
-1.3232518508933568E+00
-1.3228810768706616E+00
-1.3220476689082672E+00
-1.3212147554786511E+00
-1.3207609129391888E+00
-1.3203078833749990E+00
-1.3199379835451683E+00
-1.3188596511595818E+00
-1.3187028376627363E+00
-1.3182790808711506E+00
-1.3180429069324642E+00
-1.3175154088693322E+00
-1.3173043428204891E+00
-1.3166322419837486E+00
-1.3164656015844833E+00
-1.3158598348646404E+00
-1.3152601846523906E+00
-1.3150780778937929E+00
-1.3144554512492779E+00
-1.3139919958790971E+00
-1.3139353664075606E+00
-1.3127493790713660E+00
-1.3121169680597375E+00
-1.3116942979710711E+00
-1.3111849903568227E+00
-1.3110280061346784E+00
-1.3106940727942202E+00
-1.3100514232746383E+00
-1.3096411272105477E+00
-1.3094479442730846E+00
-1.3088886777847091E+00
-1.3083800370368208E+00
-1.3075938614968312E+00
-1.3070920151012668E+00
-1.3066818437381853E+00
-1.3063854684421112E+00
-1.3060752949041858E+00
-1.3057625173019929E+00
-1.3053728047256921E+00
-1.3049288459337780E+00
-1.3046561464803568E+00
-1.3042130565403458E+00
-1.3037407642877865E+00
-1.3035691115942645E+00
-1.3031892932182776E+00
-1.3025750321560807E+00
-1.3022453876933959E+00
-1.3018798362271742E+00
-1.3016915578298689E+00
-1.3013637264944864E+00
-1.3006709358341095E+00
-1.3003880762174096E+00
-1.3001037291748843E+00
-1.2997070819472145E+00
-1.2993927770468614E+00
-1.2992060368968670E+00
-1.2982829311827824E+00
-1.2979832791193489E+00
-1.2977602033991797E+00
-1.2969398551548437E+00
-1.2964137894023213E+00
-1.2962394265286112E+00
-1.2957595940514295E+00
-1.2952468633043652E+00
-1.2949768662438166E+00
-1.2946349511009732E+00
-1.2940441335543533E+00
-1.2936347013269174E+00
-1.2929992470000569E+00
-1.2920852434481886E+00
-1.2918548634989382E+00
-1.2913881751296825E+00
-1.2909994718850575E+00
-1.2908774403005849E+00
-1.2902682431014916E+00
-1.2891482198809463E+00
-1.2888647408030454E+00
-1.2887310304517001E+00
-1.2881288324928641E+00
-1.2880577514019955E+00
-1.2875425990726834E+00
-1.2873119438777048E+00
-1.2869349338842826E+00
-1.2867902454403612E+00
-1.2865547820082219E+00
-1.2857729645199414E+00
-1.2856188472840011E+00
-1.2851178957358236E+00
-1.2848348190046790E+00
-1.2839115757136323E+00
-1.2835454684698882E+00
-1.2833280494735910E+00
-1.2826621438971688E+00
-1.2824147972135904E+00
-1.2816399411388166E+00
-1.2803896803089860E+00
-1.2800921776228389E+00
-1.2795124726291416E+00
-1.2787647700141782E+00
-1.2782907389652904E+00
-1.2774153946482749E+00
-1.2767004799593562E+00
-1.2754305415792035E+00
-1.2748468938931776E+00
-1.2734903064618943E+00
-1.2733844790737336E+00
-1.2722721316023953E+00
-1.2712019575783948E+00
-1.2644938901098521E+00
-1.1784272869549011E+00
-1.1776383245095201E+00
-1.1740926806653611E+00
-1.1698048211617533E+00
-1.1672458934899801E+00
-1.1653847234684303E+00
-1.1641847839711370E+00
-1.1633340971434918E+00
-1.1629666760519453E+00
-1.1613445801332547E+00
-1.1600331059754032E+00
-1.1580179666722337E+00
-1.1574016339007180E+00
-1.1563388662491707E+00
-1.1555693205293263E+00
-1.1552852737849859E+00
-1.1537522761729184E+00
-1.1534764755035309E+00
-1.1528598222411364E+00
-1.1516568741354967E+00
-1.1512703030790121E+00
-1.1494768408725595E+00
-1.1491088700388776E+00
-1.1482881212870728E+00
-1.1480247057249886E+00
-1.1468993465594923E+00
-1.1456484785112770E+00
-1.1454536984774057E+00
-1.1447770575953033E+00
-1.1438270730909990E+00
-1.1425061359296746E+00
-1.1417976047214262E+00
-1.1415431409988559E+00
-1.1407133896082584E+00
-1.1398027665834891E+00
-1.1387948918303938E+00
-1.1384787682955118E+00
-1.1379583010764971E+00
-1.1371129387579670E+00
-1.1361588626618309E+00
-1.1357314647054058E+00
-1.1348572099419283E+00
-1.1345399167232644E+00
-1.1332125113982301E+00
-1.1327929886648336E+00
-1.1318497997709582E+00
-1.1302155198534667E+00
-1.1301689638552672E+00
-1.1289620692808322E+00
-1.1286611291805022E+00
-1.1274305231654456E+00
-1.1265893454450946E+00
-1.1260793904912776E+00
-1.1257179424588779E+00
-1.1250174028749538E+00
-1.1244069201155524E+00
-1.1232372158726687E+00
-1.1218902469425689E+00
-1.1214113806925585E+00
-1.1212947308553469E+00
-1.1202118833597445E+00
-1.1200313229924104E+00
-1.1196359748230946E+00
-1.1189973025562239E+00
-1.1181660783302330E+00
-1.1176159049677878E+00
-1.1170048611135424E+00
-1.1161809155452356E+00
-1.1146373907436200E+00
-1.1144111515026718E+00
-1.1140277445459279E+00
-1.1132452651050475E+00
-1.1121003170969104E+00
-1.1111048544957864E+00
-1.1106267222044006E+00
-1.1098070607260162E+00
-1.1097158141993566E+00
-1.1091794626350742E+00
-1.1078059701545238E+00
-1.1074195999386514E+00
-1.1072329891258392E+00
-1.1062618352113103E+00
-1.1055505725683565E+00
-1.1047230116440143E+00
-1.1034231988937035E+00
-1.1025304616352594E+00
-1.1020260424171593E+00
-1.1015976587626573E+00
-1.1007940866876313E+00
-1.0995097035908414E+00
-1.0991835859242611E+00
-1.0985879425466787E+00
-1.0981983685435861E+00
-1.0977810836406283E+00
-1.0974087430165833E+00
-1.0962453812202668E+00
-1.0957468835687285E+00
-1.0952458655074813E+00
-1.0943235071564255E+00
-1.0941059170431344E+00
-1.0935136387894686E+00
-1.0925585575532475E+00
-1.0917752813613990E+00
-1.0912360709329754E+00
-1.0906489878096826E+00
-1.0894866171964601E+00
-1.0885483069395514E+00
-1.0879472073113154E+00
-1.0876067328216770E+00
-1.0861417860089611E+00
-1.0857405573882202E+00
-1.0847778790059623E+00
-1.0841163720768707E+00
-1.0836849793107459E+00
-1.0827063994088797E+00
-1.0822887166209818E+00
-1.0812574180679038E+00
-1.0805119165141166E+00
-1.0787735010717707E+00
-1.0785606974411062E+00
-1.0778306568645042E+00
-1.0756641068126469E+00
-1.0753383127048435E+00
-1.0743863805314782E+00
-1.0723485759763829E+00
-1.0716097469671622E+00
-1.0702154541833022E+00
-1.0674710429940046E+00
-1.0014987829967976E+00
-9.9698070433330621E-01
-9.9593930943638764E-01
-9.9563810528446273E-01
-9.9549740503741269E-01
-9.9492121220411012E-01
-9.9456594621644123E-01
-9.9384977538225205E-01
-9.9371612840044610E-01
-9.9307113621170628E-01
-9.9274396623830874E-01
-9.9188872118005267E-01
-9.9148102145569306E-01
-9.9131078395582917E-01
-9.9119701700186913E-01
-9.9084986275857934E-01
-9.9063126996612050E-01
-9.9040824396311045E-01
-9.8954799750228994E-01
-9.8938495407098526E-01
-9.8918529576447012E-01
-9.8889927176401848E-01
-9.8869136215580622E-01
-9.8851111983038731E-01
-9.8814240440893131E-01
-9.8748111052832055E-01
-9.8736243647417399E-01
-9.8690438945059689E-01
-9.8679187518693046E-01
-9.8661093528033317E-01
-9.8640806834612349E-01
-9.8610786923796312E-01
-9.8581315999547248E-01
-9.8568632169440251E-01
-9.8505007715771364E-01
-9.8484523321122786E-01
-9.8473350540961224E-01
-9.8456098065390307E-01
-9.8413094914848986E-01
-9.8405769207819971E-01
-9.8378674586163539E-01
-9.8329672596425455E-01
-9.8309463160977995E-01
-9.8287039335728210E-01
-9.8251811441446568E-01
-9.8221653202282366E-01
-9.8192534392688924E-01
-9.8166375999686106E-01
-9.8142985968730900E-01
-9.8125829758512584E-01
-9.8086870579056307E-01
-9.8058224349113787E-01
-9.8021545657867459E-01
-9.8009136182469991E-01
-9.7975448089552253E-01
-9.7964447878273297E-01
-9.7944546442772962E-01
-9.7937015026840124E-01
-9.7923459432821591E-01
-9.7900834974638884E-01
-9.7881916776915312E-01
-9.7878957598054228E-01
-9.7841218981588640E-01
-9.7831233129586936E-01
-9.7775248268453696E-01
-9.7770841346243398E-01
-9.7749529767777710E-01
-9.7729131641567013E-01
-9.7689177650888492E-01
-9.7675780595031547E-01
-9.7642571515172916E-01
-9.7618113222167935E-01
-9.7601429259067274E-01
-9.7583413392285145E-01
-9.7571706854694173E-01
-9.7526173613521094E-01
-9.7513360069748178E-01
-9.7468181928853670E-01
-9.7452268099837469E-01
-9.7434078460634466E-01
-9.7402640129373397E-01
-9.7377708075108016E-01
-9.7364979904066529E-01
-9.7340386033277271E-01
-9.7309993977074816E-01
-9.7281290373751683E-01
-9.7256170635248573E-01
-9.7230522163541100E-01
-9.7188994630040504E-01
-9.7159026550932104E-01
-9.7142060392885021E-01
-9.7101359907716589E-01
-9.7069734859338619E-01
-9.7063523487938497E-01
-9.7049632109136907E-01
-9.7016040254762093E-01
-9.6995239438625191E-01
-9.6964158235186071E-01
-9.6940602660933406E-01
-9.6887427227920875E-01
-9.6858910093293860E-01
-9.6854869727488635E-01
-9.6811394897073999E-01
-9.6771494972083061E-01
-9.6750531361940051E-01
-9.6732721792636989E-01
-9.6702157790961185E-01
-9.6692503860433210E-01
-9.6633351329084916E-01
-9.6619091981997329E-01
-9.6603080955246612E-01
-9.6567596547507351E-01
-9.6556349041604450E-01
-9.6554843064130824E-01
-9.6477412409792629E-01
-9.6399245508776243E-01
-9.6361632463584512E-01
-9.6334023884483622E-01
-9.6239426431148067E-01
-9.6202739810274973E-01
-9.6171025066074856E-01
-9.6160819316098145E-01
-9.6096517027150274E-01
-9.6071538112038835E-01
-9.6040063508262807E-01
-9.6006291333214766E-01
-9.5888179154990028E-01
-9.5630094115912245E-01
QETSC: Iter time (min)       =     1  38.27
QETSC: Iter time (max)       =     1  38.27
QETSC: Iter time (avg)       =     1  38.27
QETSC: Num. of conv. evals   =     1         512
QETSC: Eigenvalue (1)        =     1  -2.2942690628581643E+00
QETSC: Eigenvalue (nocc)     =     1  -9.5630094115912245E-01
QETSC: Max differrence       =     1   2.2942690628581643E+00
QETSC: Safe iteration        =     1      F
QETSC: Finished iter         =           1
 *****************************************************************
QETSC: SCF iter time=  38.400

siesta: Program's energy decomposition (eV):
siesta: Ebs     =    -19717.145141
siesta: Eions   =    104429.373288
siesta: Ena     =     25111.247127
siesta: Ekin    =     39771.655038
siesta: Enl     =     -5671.889728
siesta: DEna    =         0.000020
siesta: DUscf   =         0.000000
siesta: DUext   =         0.000000
siesta: Exc     =    -14272.759880
siesta: eta*DQ  =         0.000000
siesta: Emadel  =         0.000000
siesta: Emeta   =         0.000000
siesta: Emolmec =         0.000000
siesta: Ekinion =         0.000000
siesta: Eharris =    -60791.143089
siesta: Etot    =    -59491.120711
siesta: FreeEng =    -59491.120711
timer: Routine,Calls,Time,% =    IterSCF     1      41.890  63.10
 QETSC: Bins             =
                   -INF
-2.2999999999999998E+00
-2.1466666666666665E+00
-1.9933333333333332E+00
-1.8399999999999999E+00
-1.6866666666666665E+00
-1.5333333333333332E+00
-1.3799999999999999E+00
-1.2266666666666666E+00
-1.0733333333333333E+00
-9.1999999999999993E-01
-7.6666666666666661E-01
-6.1333333333333329E-01
-4.5999999999999996E-01
-3.0666666666666664E-01
-1.5333333333333332E-01
 0.0000000000000000E+00
QETSC: Started iter            2
QETSC: Bin type used         =           0
QETSC: Buffer used           =   2.2942690628581643E+00
QETSC: EPS interval          =      -INF,     0.000
QETSC: Inertia type          =           1
SLEPc: EPSSolve time = 3 2.392e-06
SLEPc: EPSSolve time = 9 1.850e-06
SLEPc: EPSSolve time = 4 2.330e-06
SLEPc: EPSSolve time = 8 1.915e-06
SLEPc: EPSSolve time = 2 2.370e-06
SLEPc: EPSSolve time = 1 2.345e-06
SLEPc: EPSSolve time = 0 3.689e-06
SLEPc: EPSSolve time = 7 5.626e+00
SLEPc: EPSSolve time = 5 1.628e+01
SLEPc: EPSSolve time = 10 1.850e+01
SLEPc: EPSSolve time = 13 2.126e+01
SLEPc: EPSSolve time = 6 2.297e+01
SLEPc: EPSSolve time = 11 2.480e+01
SLEPc: EPSSolve time = 15 2.738e+01
SLEPc: EPSSolve time = 12 2.961e+01
SLEPc: EPSSolve time = 14 3.020e+01
 QETSC: Eigenvalues         =
-1.6575748079345756E+00
-1.6412756905755630E+00
-1.6281966318812859E+00
-1.6151475123746055E+00
-1.6084039609944660E+00
-1.6034305633686001E+00
-1.5989905266590680E+00
-1.5966625362527034E+00
-1.5952286715618602E+00
-1.5873307762605480E+00
-1.5819270244498977E+00
-1.5799648066931864E+00
-1.5738984024420566E+00
-1.5697039944888480E+00
-1.5670832584299910E+00
-1.5666224242595006E+00
-1.5648000500457950E+00
-1.5595168211007857E+00
-1.5591315536367867E+00
-1.5564743477036986E+00
-1.5549190272995863E+00
-1.5509243305408624E+00
-1.5500057674797048E+00
-1.5494900226429187E+00
-1.5481087098871722E+00
-1.5422861208806735E+00
-1.5418101258584136E+00
-1.5411334375009900E+00
-1.5371296071328755E+00
-1.5354054599996223E+00
-1.5351523262682514E+00
-1.5336779873925768E+00
-1.5329312015399013E+00
-1.5320181517719311E+00
-1.5306575616512856E+00
-1.5297131688189796E+00
-1.5279654960172655E+00
-1.5274400781962227E+00
-1.5229012689118795E+00
-1.5202341508152375E+00
-1.5180393892359869E+00
-1.5170618843466035E+00
-1.5167194048450927E+00
-1.5144178399795483E+00
-1.5119129925828663E+00
-1.5108612654323441E+00
-1.5106774044620266E+00
-1.5090991051610758E+00
-1.5051579871478225E+00
-1.5042932060379448E+00
-1.5021926069512366E+00
-1.5015262296387710E+00
-1.4988497178546667E+00
-1.4969569243251886E+00
-1.4966067798443470E+00
-1.4934746129538716E+00
-1.4917098053849345E+00
-1.4894793265575563E+00
-1.4884890258035188E+00
-1.4882844283694472E+00
-1.4850099009653062E+00
-1.4828681897264380E+00
-1.4818171672102241E+00
-1.4806936192666496E+00
-1.4800820702050055E+00
-1.4787601585434142E+00
-1.4770995704296621E+00
-1.4741875402667139E+00
-1.4736665475374879E+00
-1.4717809998260891E+00
-1.4709973927546431E+00
-1.4700849301372709E+00
-1.4695167820837336E+00
-1.4679613031873764E+00
-1.4671197977240691E+00
-1.4662350332685663E+00
-1.4653115391014531E+00
-1.4646035161122226E+00
-1.4624801843148014E+00
-1.4621189149993861E+00
-1.4607465450875083E+00
-1.4589629734317759E+00
-1.4578555782492257E+00
-1.4555919847672452E+00
-1.4543232637178003E+00
-1.4530523490105045E+00
-1.4524650031991659E+00
-1.4520293813521232E+00
-1.4505959580778900E+00
-1.4482575753957057E+00
-1.4477601765834622E+00
-1.4470245522178644E+00
-1.4445991008519912E+00
-1.4430587150295779E+00
-1.4398300010178584E+00
-1.4382529534958430E+00
-1.4368804326660654E+00
-1.4360202252901353E+00
-1.4352960977573752E+00
-1.4343225301188303E+00
-1.4300328222144503E+00
-1.4289180482111563E+00
-1.4260957631959579E+00
-1.4255320663844138E+00
-1.4241880388622186E+00
-1.4213849789203037E+00
-1.4189040170968699E+00
-1.4180205260097269E+00
-1.4173348073066014E+00
-1.4155184900185684E+00
-1.4131683261090877E+00
-1.4127529460662736E+00
-1.4056366941838372E+00
-1.4052997133354681E+00
-1.4015161350615464E+00
-1.4011798320479949E+00
-1.3997661467961293E+00
-1.3992159563168585E+00
-1.3957918739260748E+00
-1.3917041740512837E+00
-1.3893521929692481E+00
-1.3862389911636890E+00
-1.3761768196671680E+00
-1.3692590895480852E+00
-1.3675261926652089E+00
-1.3659885836295249E+00
-1.3655349726072128E+00
-1.3413533686802956E+00
-8.7013121349154099E-01
-8.6920949244620793E-01
-8.5500283610846795E-01
-8.4972218835702051E-01
-8.4244266116441768E-01
-8.3769415563102201E-01
-8.3491365920185545E-01
-8.2384440084284671E-01
-8.2343902673073521E-01
-8.1953884940941468E-01
-8.1625341256422013E-01
-8.1487468547519681E-01
-8.1105916259407851E-01
-8.1027166745835721E-01
-8.0850345382775812E-01
-8.0620646931474649E-01
-8.0373896177561366E-01
-8.0176988511372793E-01
-8.0018788366384452E-01
-7.9822181048530683E-01
-7.9732235060396650E-01
-7.9638978438087171E-01
-7.9432765967646113E-01
-7.9232509989732836E-01
-7.9132220590202917E-01
-7.8961737351228922E-01
-7.8740898178321217E-01
-7.8518098373833400E-01
-7.8421082885290172E-01
-7.8081221185101568E-01
-7.7774412736729348E-01
-7.7705752642497594E-01
-7.7509269613634257E-01
-7.7398859175534529E-01
-7.7270198666859979E-01
-7.7111365984982461E-01
-7.6985855856065510E-01
-7.6801052457408370E-01
-7.6680975692181996E-01
-7.6347769753897388E-01
-7.6231150132230030E-01
-7.6106873128095109E-01
-7.5945380986486177E-01
-7.5842232383912855E-01
-7.5683220177694155E-01
-7.5480698998147955E-01
-7.5347431979645285E-01
-7.5035242060281981E-01
-7.4955391522540527E-01
-7.4847178750395171E-01
-7.4295042145615642E-01
-7.4194620745516571E-01
-7.4080004289374934E-01
-7.3886139634747694E-01
-7.3707044643044739E-01
-7.3620787492872419E-01
-7.3586550591262523E-01
-7.3420962020665614E-01
-7.3331559311956607E-01
-7.3295850861234979E-01
-7.3194094112623875E-01
-7.3079485656436394E-01
-7.2840551073153426E-01
-7.2776389519917062E-01
-7.2684318958747329E-01
-7.2530254909041414E-01
-7.2316212163809457E-01
-7.2173705866720916E-01
-7.2062018774723591E-01
-7.2038467705920217E-01
-7.1943412393703832E-01
-7.1879930655835078E-01
-7.1721097237454112E-01
-7.1518661281784790E-01
-7.1355141406017886E-01
-7.1327155597572012E-01
-7.1161526069087377E-01
-7.1116808356924299E-01
-7.1008047386955719E-01
-7.0783851963580191E-01
-7.0612340909797910E-01
-7.0461123835563044E-01
-7.0357653786500340E-01
-7.0111660257475217E-01
-7.0068566506024288E-01
-6.9908787172619380E-01
-6.9743725700787240E-01
-6.9628665816419022E-01
-6.9540329963798364E-01
-6.9350260414767240E-01
-6.9204402579449942E-01
-6.9018081685615118E-01
-6.8823721132288973E-01
-6.8661086752707345E-01
-6.8465180513849622E-01
-6.8372399983229148E-01
-6.8272953797800373E-01
-6.8150776348601860E-01
-6.8057594704412905E-01
-6.7930105436356214E-01
-6.7885999636633865E-01
-6.7501883080832648E-01
-6.7387186084253581E-01
-6.7340762340858029E-01
-6.7047583938718358E-01
-6.6854569351160809E-01
-6.6750810382677672E-01
-6.6601869157982052E-01
-6.6369988889231923E-01
-6.6245746782797521E-01
-6.6110960664170826E-01
-6.5841840851583977E-01
-6.5807970482693756E-01
-6.5589436988555239E-01
-6.5383619470813914E-01
-6.5356684743002591E-01
-6.5119042799714222E-01
-6.4963800853258524E-01
-6.4761052657158258E-01
-6.4572188778938366E-01
-6.4326068926651336E-01
-6.4180820563616858E-01
-6.4015090512472861E-01
-6.3947865030611650E-01
-6.3307538708461486E-01
-6.1687607921922438E-01
-6.0715487736866702E-01
-5.9004334370433020E-01
-5.6630979145911220E-01
-5.2291724113892946E-01
-5.1152383787435229E-01
-5.0032936908992076E-01
-4.9486498477296870E-01
-4.8447452956217879E-01
-4.7620236381013581E-01
-4.7433718588275020E-01
-4.7373559842690227E-01
-4.6840444024495920E-01
-4.6706927145317423E-01
-4.6500908712040295E-01
-4.5738429409248454E-01
-4.5511791959295012E-01
-4.5140557903078704E-01
-4.4887008870226375E-01
-4.4790476847540961E-01
-4.4543172870610337E-01
-4.4247902534824507E-01
-4.3837298739510949E-01
-4.3684265641168196E-01
-4.3662179585796784E-01
-4.3238530787574536E-01
-4.2790720060291143E-01
-4.2660227345592372E-01
-4.2456477336192294E-01
-4.2266656581679374E-01
-4.1952339508047332E-01
-4.1622449763582653E-01
-4.1613311973333300E-01
-4.1343142481548323E-01
-4.1137592441775478E-01
-4.0767311852810811E-01
-4.0632612121445000E-01
-4.0493846249977394E-01
-4.0329710700778398E-01
-4.0186234216755123E-01
-4.0063373510946920E-01
-3.9767245024854031E-01
-3.9559887256576898E-01
-3.9282139213546319E-01
-3.9016360491210766E-01
-3.8893535995388373E-01
-3.8752115052730579E-01
-3.8524381576944428E-01
-3.8360436391401709E-01
-3.8031598902807207E-01
-3.7656115485726166E-01
-3.7429870895379114E-01
-3.7076580861042763E-01
-3.6783055408728560E-01
-3.6628744850842365E-01
-3.6455655723826219E-01
-3.6378515081816576E-01
-3.6245563698171662E-01
-3.6032281007670625E-01
-3.5835026002452125E-01
-3.5747469265963011E-01
-3.5662702176324890E-01
-3.5377460515337644E-01
-3.5191876031041586E-01
-3.5032702079294054E-01
-3.4808628035835520E-01
-3.4631908489732310E-01
-3.4408878597682219E-01
-3.4317719895195670E-01
-3.4089467576163807E-01
-3.4034193599209039E-01
-3.3753140211060428E-01
-3.3533241757019017E-01
-3.3175538365950841E-01
-3.3090959138343667E-01
-3.2930008433697117E-01
-3.2684634571974625E-01
-3.2553103214091245E-01
-3.2352519789724621E-01
-3.2060029256209915E-01
-3.1867023279009832E-01
-3.1823762197614064E-01
-3.1664827766636772E-01
-3.1549054944187227E-01
-3.1219721872537570E-01
-3.1094929508685415E-01
-3.0969168924232221E-01
-3.0783045249574681E-01
-3.0548942727764111E-01
-3.0346415820220596E-01
-2.9987794038571991E-01
-2.9841109817446032E-01
-2.9661848358802273E-01
-2.9373203584945973E-01
-2.9230976181095819E-01
-2.9072093255089576E-01
-2.8936420826558323E-01
-2.8652822402926797E-01
-2.8425160245160908E-01
-2.8271535020909272E-01
-2.8182795721819737E-01
-2.7862983395492608E-01
-2.7711888509396898E-01
-2.7660229753084437E-01
-2.7413422496713891E-01
-2.7275554044530681E-01
-2.7097785704086758E-01
-2.6716724872731151E-01
-2.6703633158160017E-01
-2.6685751908993305E-01
-2.6368250519273212E-01
-2.6206607749154798E-01
-2.5999406777714695E-01
-2.5944803287427942E-01
-2.5725111461780548E-01
-2.5226295441661661E-01
-2.5168337588387257E-01
-2.4797911148809249E-01
-2.4711353738053077E-01
-2.4672192242425361E-01
-2.4528254697723997E-01
-2.4425792326380658E-01
-2.4101436441845586E-01
-2.3943921825506814E-01
-2.3794215639363808E-01
-2.3675656045806623E-01
-2.3499653003729473E-01
-2.3111732972729918E-01
-2.3009894892808980E-01
-2.2900826327456514E-01
-2.2782782390370646E-01
-2.2464143124309224E-01
-2.2335732356029903E-01
-2.2286911494037354E-01
-2.2212696364037551E-01
-2.2010615988633309E-01
-2.1858587331899543E-01
-2.1809511334946907E-01
-2.1770875002583051E-01
-2.1535781979523155E-01
-2.1440096524901317E-01
-2.1237664335926287E-01
-2.1146999752767059E-01
-2.1072180139958560E-01
-2.0982989381805256E-01
-2.0843643114457000E-01
-2.0797099254952892E-01
-2.0499930818906198E-01
-2.0264298076015527E-01
-2.0089894736708030E-01
-2.0023528354780792E-01
-1.9961306386945898E-01
-1.9824323286706935E-01
-1.9620748348748263E-01
-1.9554337339897959E-01
-1.9406823394289927E-01
-1.9200443446457785E-01
-1.9051902588595654E-01
-1.8939794140908828E-01
-1.8679114506687927E-01
-1.8620951990309442E-01
-1.8360787219818545E-01
-1.8217305039883042E-01
-1.8163532277714789E-01
-1.8064572622688566E-01
-1.7862763614192267E-01
-1.7736939249013889E-01
-1.7514284633358834E-01
-1.7446477156293047E-01
-1.7306235217910643E-01
-1.7272836125830376E-01
-1.7057085969068356E-01
-1.6914332168846496E-01
-1.6831641009343251E-01
-1.6717862018054791E-01
-1.6693930019956438E-01
-1.6514675784719698E-01
-1.6368970401027905E-01
-1.6297159528845753E-01
-1.6159337207931801E-01
-1.6029554434315460E-01
-1.5936438666569869E-01
-1.5786783851593994E-01
-1.5723671722121693E-01
-1.5579307267117182E-01
-1.5470597225501989E-01
-1.5394510846560755E-01
-1.5158609621756744E-01
-1.5020787639917904E-01
-1.4914908352677311E-01
-1.4831691076568909E-01
-1.4662689033089543E-01
-1.4572847555586205E-01
-1.4493262434898843E-01
-1.4439291815808872E-01
-1.4344445952427609E-01
-1.4160517632322869E-01
-1.3979688711200808E-01
-1.3879887763468707E-01
-1.3780016900533928E-01
-1.3620936720618332E-01
-1.3620027134773863E-01
-1.3383135970704713E-01
-1.3256881763100223E-01
-1.3162399338497743E-01
-1.3101949150304731E-01
-1.3020902040001803E-01
-1.2985562404660941E-01
-1.2741944316999909E-01
-1.2627075925178566E-01
-1.2488732584823964E-01
-1.2288301719086031E-01
-1.2014291837686297E-01
-1.1983426595988940E-01
-1.1917158576433820E-01
-1.1777276188511893E-01
-1.1755842636486104E-01
-1.1621859328423821E-01
-1.1445511004717412E-01
-1.1317439227797693E-01
-1.1203243450510658E-01
-1.1082444177814031E-01
-1.0962692347897103E-01
-1.0912147468715756E-01
-1.0824425499495396E-01
-1.0509591274168871E-01
-1.0437362311021771E-01
-1.0341382412093249E-01
-1.0113588671988179E-01
-1.0065293752903370E-01
-9.9165077844466307E-02
-9.7810029748582258E-02
-9.6229571439679515E-02
-9.4091590672051237E-02
-9.0655895304939366E-02
-8.9124040453369191E-02
-8.8560157487193522E-02
-8.7759297699726596E-02
-8.6283442293171073E-02
-8.4723830976117048E-02
-8.1989847346720809E-02
-7.9982471540870931E-02
-7.9046793526269310E-02
-7.7891125537965566E-02
-7.3009387017533928E-02
-6.8773088877932528E-02
-6.5727362216418533E-02
-6.4798272982419317E-02
-6.2906118320713883E-02
-5.8416285390903336E-02
-5.5738394423609547E-02
-5.2230747277588682E-02
-5.0987033258893436E-02
-4.4817057140168141E-02
-4.3508622170015561E-02
-4.2867347423256028E-02
-3.8124214778929646E-02
-3.4374699964825915E-02
-1.7895993322055818E-02
QETSC: Iter time (min)       =     2  35.94
QETSC: Iter time (max)       =     2  35.94
QETSC: Iter time (avg)       =     2  35.94
QETSC: Num. of conv. evals   =     2         512
QETSC: Eigenvalue (1)        =     2  -1.6575748079345756E+00
QETSC: Eigenvalue (nocc)     =     2  -1.7895993322055818E-02
QETSC: Max differrence       =     2   9.3840494783706663E-01
QETSC: Safe iteration        =     2      F
QETSC: Finished iter         =           2
 *****************************************************************
QETSC: SCF iter time=  35.940
 QETSC: Bins             =
                   -INF
-2.2999999999999998E+00
-2.1466666666666665E+00
-1.9933333333333332E+00
-1.8399999999999999E+00
-1.6866666666666665E+00
-1.5333333333333332E+00
-1.3799999999999999E+00
-1.2266666666666666E+00
-1.0733333333333333E+00
-9.1999999999999993E-01
-7.6666666666666661E-01
-6.1333333333333329E-01
-4.5999999999999996E-01
-3.0666666666666664E-01
-1.5333333333333332E-01
 0.0000000000000000E+00
QETSC: Started iter            3
QETSC: Bin type used         =           0
QETSC: Buffer used           =   9.3840494783706663E-01
QETSC: EPS interval          =      -INF,     0.000
QETSC: Inertia type          =           1
SLEPc: EPSSolve time = 0 1.895e-06
SLEPc: EPSSolve time = 13 2.614e-06
SLEPc: EPSSolve time = 6 2.327e-06
SLEPc: EPSSolve time = 14 4.072e-06
SLEPc: EPSSolve time = 5 2.448e-06
SLEPc: EPSSolve time = 15 4.456e-06
SLEPc: EPSSolve time = 1 2.035e-06
SLEPc: EPSSolve time = 4 1.850e-06
SLEPc: EPSSolve time = 7 2.626e-06
SLEPc: EPSSolve time = 2 8.667e+00
SLEPc: EPSSolve time = 12 1.638e+01
SLEPc: EPSSolve time = 8 1.708e+01
SLEPc: EPSSolve time = 3 2.819e+01
SLEPc: EPSSolve time = 10 2.831e+01
SLEPc: EPSSolve time = 9 3.598e+01
SLEPc: EPSSolve time = 11 4.641e+01
 QETSC: Eigenvalues         =
-2.0267794589924795E+00
-2.0218813910271547E+00
-2.0164288657637375E+00
-2.0142206706521635E+00
-2.0139416427746233E+00
-2.0082000777092950E+00
-2.0069318534170644E+00
-2.0042187203896198E+00
-2.0025025545977333E+00
-2.0002337628966878E+00
-1.9988753325012161E+00
-1.9974655802803003E+00
-1.9956815819620293E+00
-1.9955030523152653E+00
-1.9929323811597437E+00
-1.9924816536078256E+00
-1.9914489703786844E+00
-1.9903395199683169E+00
-1.9896285245855720E+00
-1.9881707156923019E+00
-1.9852538217652502E+00
-1.9850903929477504E+00
-1.9842039596675418E+00
-1.9831151249523327E+00
-1.9822982539088938E+00
-1.9809938551615369E+00
-1.9800889186025097E+00
-1.9790345940727117E+00
-1.9784930975396104E+00
-1.9778079195380063E+00
-1.9767268230567854E+00
-1.9759788132340539E+00
-1.9757496189156396E+00
-1.9753469558629624E+00
-1.9747500861027094E+00
-1.9741195181831868E+00
-1.9731263079748846E+00
-1.9721562680389406E+00
-1.9712628289734739E+00
-1.9704658226693321E+00
-1.9703677157965536E+00
-1.9695928989310734E+00
-1.9691758340052434E+00
-1.9671011280700188E+00
-1.9666264181535942E+00
-1.9663951371579582E+00
-1.9653589383532171E+00
-1.9650455427231448E+00
-1.9646292601271993E+00
-1.9628595108689011E+00
-1.9625569467919721E+00
-1.9620354097130852E+00
-1.9612876228838527E+00
-1.9606483728958788E+00
-1.9598164626588490E+00
-1.9592069390373683E+00
-1.9589246707606998E+00
-1.9575817892701897E+00
-1.9571989982383311E+00
-1.9564288149818492E+00
-1.9556425442897361E+00
-1.9549124019345974E+00
-1.9543148703917652E+00
-1.9534230669350461E+00
-1.9532034301669770E+00
-1.9524535371956295E+00
-1.9517069490911874E+00
-1.9514784574800748E+00
-1.9508755923956664E+00
-1.9495384677490073E+00
-1.9494749569655867E+00
-1.9490980896395373E+00
-1.9486300172777260E+00
-1.9482553261793425E+00
-1.9475928050854012E+00
-1.9470732560605462E+00
-1.9463115452774742E+00
-1.9456139137147235E+00
-1.9439852227983432E+00
-1.9427530055197333E+00
-1.9424172961053299E+00
-1.9405020901576424E+00
-1.9399016582874822E+00
-1.9398014442212466E+00
-1.9391571300328823E+00
-1.9385861178860864E+00
-1.9373164204462876E+00
-1.9359900195094715E+00
-1.9354518292353431E+00
-1.9349186927459321E+00
-1.9342304502411447E+00
-1.9330800522681306E+00
-1.9327807955314349E+00
-1.9321214707487897E+00
-1.9315774458550508E+00
-1.9309169440109011E+00
-1.9302355142536380E+00
-1.9298444803265045E+00
-1.9298032382807300E+00
-1.9276938112350277E+00
-1.9272178952479295E+00
-1.9267826742004575E+00
-1.9262426650265383E+00
-1.9248025999659566E+00
-1.9246337625974341E+00
-1.9237305548286683E+00
-1.9228878573581478E+00
-1.9217962902423293E+00
-1.9214841155716087E+00
-1.9210781724114905E+00
-1.9199931806313297E+00
-1.9199012777991267E+00
-1.9187625414940386E+00
-1.9171441901649477E+00
-1.9168561829784445E+00
-1.9163991266744378E+00
-1.9143083652458823E+00
-1.9136854454856436E+00
-1.9131633021423566E+00
-1.9130069056328516E+00
-1.9128125229784287E+00
-1.9113239555699593E+00
-1.9110111908258658E+00
-1.9014039926366828E+00
-1.9001722134874337E+00
-1.8994397883347465E+00
-1.8978701675968606E+00
-1.8887402736426877E+00
-1.1246491870570157E+00
-1.1205350081078171E+00
-1.1187887896303190E+00
-1.1168563915437626E+00
-1.1153807219156617E+00
-1.1138605863442508E+00
-1.1120583630660694E+00
-1.1078010875884252E+00
-1.1048376950266525E+00
-1.1040441792012732E+00
-1.1025535694672925E+00
-1.1016462576254369E+00
-1.0993779854757579E+00
-1.0991053124985983E+00
-1.0989637116326954E+00
-1.0981019564064107E+00
-1.0953366676904788E+00
-1.0951291429837595E+00
-1.0944350457946601E+00
-1.0932156337324992E+00
-1.0923434119798621E+00
-1.0911147171749653E+00
-1.0898999072417772E+00
-1.0888983996091068E+00
[...]
Using Petsc Development GIT revision: v3.7.3-1204-g68f0caa  GIT Date: 2016-08-19 16:41:02 -0500

                         Max       Max/Min        Avg      Total 
Time (sec):           5.516e+02      1.00000   5.516e+02
Objects:              1.786e+03      1.60612   1.475e+03
Flops:                1.440e+10   10935.59299   6.485e+09  2.075e+11
Flops/sec:            2.610e+07   10935.59289   1.176e+07  3.762e+08
MPI Messages:         2.620e+04      4.83395   1.704e+04  5.454e+05
MPI Message Lengths:  2.042e+08      4.94404   7.980e+03  4.353e+09
MPI Reductions:       1.942e+04      2.23919

Flop counting convention: 1 flop = 1 real number operation of type (multiply/divide/add/subtract)
                            e.g., VecAXPY() for real vectors of length N --> 2N flops
                            and VecAXPY() for complex vectors of length N --> 8N flops

Summary of Stages:   ----- Time ------  ----- Flops -----  --- Messages ---  -- Message Lengths --  -- Reductions --
                        Avg     %Total     Avg     %Total   counts   %Total     Avg         %Total   counts   %Total 
 0:      Main Stage: 1.9864e-04   0.0%  0.0000e+00   0.0%  0.000e+00   0.0%  0.000e+00        0.0%  0.000e+00   0.0% 
 1:     siesta_init: 4.1765e+00   0.8%  0.0000e+00   0.0%  0.000e+00   0.0%  0.000e+00        0.0%  0.000e+00   0.0% 
 2:   siesta_forces: 2.4021e+01   4.4%  0.0000e+00   0.0%  0.000e+00   0.0%  0.000e+00        0.0%  0.000e+00   0.0% 
 3:    siesta_solve: 1.0170e-02   0.0%  0.0000e+00   0.0%  0.000e+00   0.0%  0.000e+00        0.0%  0.000e+00   0.0% 
 4:    siesta2qetsc: 3.7920e-01   0.1%  0.0000e+00   0.0%  4.030e+03   0.7%  1.362e+00        0.0%  6.900e+01   0.8% 
 5: qetsc_setup_eps: 6.8601e+00   1.2%  7.7854e+07   0.0%  3.539e+04   6.5%  1.951e+03       24.5%  1.880e+02   2.2% 
 6: qetsc_solve_eps: 4.3254e+02  78.4%  2.0745e+11 100.0%  2.735e+05  50.1%  5.736e+03       71.9%  7.010e+03  80.7% 
 7:   qetsc_eigvals: 9.1025e-02   0.0%  0.0000e+00   0.0%  0.000e+00   0.0%  0.000e+00        0.0%  0.000e+00   0.0% 
 8:   qetsc_density: 2.5867e+01   4.7%  0.0000e+00   0.0%  2.325e+05  42.6%  2.919e+02        3.7%  7.932e+03  91.3% 
10:     siesta_misc: 5.6586e+01  10.3%  0.0000e+00   0.0%  0.000e+00   0.0%  0.000e+00        0.0%  0.000e+00   0.0% 
11:     siesta_move: 1.1915e-01   0.0%  0.0000e+00   0.0%  0.000e+00   0.0%  0.000e+00        0.0%  0.000e+00   0.0% 
12: siesta_analysis: 3.7260e-02   0.0%  0.0000e+00   0.0%  0.000e+00   0.0%  0.000e+00        0.0%  0.000e+00   0.0% 
13:     qetsc_clean: 3.8159e-06   0.0%  0.0000e+00   0.0%  0.000e+00   0.0%  0.000e+00        0.0%  0.000e+00   0.0% 
14:      siesta_end: 9.5677e-01   0.2%  0.0000e+00   0.0%  0.000e+00   0.0%  0.000e+00        0.0%  0.000e+00   0.0% 

------------------------------------------------------------------------------------------------------------------------
See the 'Profiling' chapter of the users' manual for details on interpreting output.
Phase summary info:
   Count: number of times phase was executed
   Time and Flops: Max - maximum over all processors
                   Ratio - ratio of maximum to minimum over all processors
   Mess: number of messages sent
   Avg. len: average message length (bytes)
   Reduct: number of global reductions
   Global: entire computation
   Stage: stages of a computation. Set stages with PetscLogStagePush() and PetscLogStagePop().
      %T - percent time in this phase         %F - percent flops in this phase
      %M - percent messages in this phase     %L - percent message lengths in this phase
      %R - percent reductions in this phase
   Total Mflop/s: 10e-6 * (sum of flops over all processors)/(max time over all processors)
------------------------------------------------------------------------------------------------------------------------
Event                Count      Time (sec)     Flops                             --- Global ---  --- Stage ---   Total
                   Max Ratio  Max     Ratio   Max  Ratio  Mess   Avg len Reduct  %T %F %M %L %R  %T %F %M %L %R Mflop/s
------------------------------------------------------------------------------------------------------------------------

--- Event Stage 0: Main Stage


--- Event Stage 1: siesta_init


--- Event Stage 2: siesta_forces


--- Event Stage 3: siesta_solve


--- Event Stage 4: siesta2qetsc

MatConvert             2 1.0 1.4371e-03 1.2 0.00e+00 0.0 0.0e+00 0.0e+00 0.0e+00  0  0  0  0  0   0  0  0  0  0     0
MatAssemblyBegin      14 1.0 3.0805e-0158.8 0.00e+00 0.0 0.0e+00 0.0e+00 5.6e+01  0  0  0  0  1  45  0  0  0 81     0
MatAssemblyEnd        14 1.0 7.8188e-03 1.0 0.00e+00 0.0 4.0e+03 1.8e+02 1.1e+01  0  0  1  0  0   2  0100100 16     0
VecSet                 3 1.0 1.5376e-05 1.6 0.00e+00 0.0 0.0e+00 0.0e+00 0.0e+00  0  0  0  0  0   0  0  0  0  0     0

--- Event Stage 5: qetsc_setup_eps

MatCholFctrSym         1 1.0 6.2654e-01 1.0 0.00e+00 0.0 0.0e+00 0.0e+00 5.0e+00  0  0  0  0  0   9  0  0  0  3     0
MatCholFctrNum         1 1.0 2.8034e+00 1.1 0.00e+00 0.0 0.0e+00 0.0e+00 0.0e+00  0  0  0  0  0  39  0  0  0  0     0
MatConvert             1 1.0 6.7893e-03 2.5 0.00e+00 0.0 0.0e+00 0.0e+00 0.0e+00  0  0  0  0  0   0  0  0  0  0     0
MatScale              24 1.0 4.5012e-03 4.6 3.55e+06 2.7 0.0e+00 0.0e+00 0.0e+00  0  0  0  0  0   0100  0  0  0 17296
MatAssemblyBegin      29 1.0 1.8822e+00842.9 0.00e+00 0.0 0.0e+00 0.0e+00 6.0e+01  0  0  0  0  1  13  0  0  0 32     0
MatAssemblyEnd        29 1.0 9.7772e-02 1.4 0.00e+00 0.0 6.4e+02 4.1e+03 4.0e+01  0  0  0  0  0   1  0  2  0 21     0
MatGetRow           2944 1.0 9.6862e-02 2.8 0.00e+00 0.0 0.0e+00 0.0e+00 0.0e+00  0  0  0  0  0   1  0  0  0  0     0
MatGetSubMatrice      14 1.0 9.0265e-01 1.5 0.00e+00 0.0 3.5e+04 3.1e+04 2.8e+01  0  0  6 24  0  10  0 98100 15     0
MatAXPY               13 1.0 3.3338e-01 1.0 0.00e+00 0.0 1.6e+02 4.1e+03 1.6e+01  0  0  0  0  0   5  0  0  0  9     0
MatRedundantMat       14 1.0 3.1338e+00 1.0 0.00e+00 0.0 3.5e+04 3.0e+04 1.3e+02  1  0  6 24  1  45  0 99100 69     0
MatMPIConcateSeq      14 1.0 2.5345e+00 1.1 0.00e+00 0.0 4.8e+02 4.1e+03 1.0e+02  0  0  0  0  1  34  0  1  0 54     0
VecSet                 6 1.0 2.9900e-05 2.0 0.00e+00 0.0 0.0e+00 0.0e+00 0.0e+00  0  0  0  0  0   0  0  0  0  0     0
EPSSetUp               1 1.0 4.2358e+00 1.0 0.00e+00 0.0 5.5e+03 2.8e+04 9.9e+01  1  0  1  4  1  62  0 15 14 53     0
STSetUp                2 1.0 3.7671e+00 1.1 0.00e+00 0.0 1.6e+02 4.1e+03 2.5e+01  1  0  0  0  0  53  0  0  0 13     0
KSPSetUp               1 1.0 3.3106e-06 2.2 0.00e+00 0.0 0.0e+00 0.0e+00 0.0e+00  0  0  0  0  0   0  0  0  0  0     0
PCSetUp                1 1.0 3.4368e+00 1.1 0.00e+00 0.0 0.0e+00 0.0e+00 5.0e+00  1  0  0  0  0  48  0  0  0  3     0

--- Event Stage 6: qetsc_solve_eps

MatMult             9969 0.0 6.7709e+01 0.0 1.18e+10 0.0 2.0e+05 1.2e+04 0.0e+00  6 76 36 53  0   8 76 71 74  0  2327
MatSolve            3853 0.0 1.8720e+02 0.0 0.00e+00 0.0 7.5e+04 1.1e+04 2.3e+03 20  0 14 19 27  25  0 27 26 33     0
MatCholFctrNum        29 2.4 7.9164e+01 2.4 0.00e+00 0.0 0.0e+00 0.0e+00 0.0e+00  9  0  0  0  0  12  0  0  0  0     0
MatCopy               29 2.4 5.5721e+00 2.4 0.00e+00 0.0 0.0e+00 0.0e+00 1.2e+02  1  0  0  0  1   1  0  0  0  2     0
MatAssemblyBegin      58 2.4 9.4061e+002122.0 0.00e+00 0.0 0.0e+00 0.0e+00 1.6e+02  1  0  0  0  2   1  0  0  0  2     0
MatAssemblyEnd        58 2.4 3.8785e-01 2.4 0.00e+00 0.0 3.1e+03 4.1e+03 2.3e+02  0  0  1  0  3   0  0  1  0  3     0
MatGetRow         128064 2.4 4.1550e+00 6.8 0.00e+00 0.0 0.0e+00 0.0e+00 0.0e+00  0  0  0  0  0   0  0  0  0  0     0
MatZeroEntries        29 2.4 1.5386e-02 3.2 0.00e+00 0.0 0.0e+00 0.0e+00 0.0e+00  0  0  0  0  0   0  0  0  0  0     0
MatAXPY               29 2.4 9.2870e+00 2.4 0.00e+00 0.0 3.1e+03 4.1e+03 3.1e+02  1  0  1  0  4   1  0  1  0  4     0
VecDot               836 0.0 2.0277e+00 0.0 2.46e+06 0.0 0.0e+00 0.0e+00 4.2e+02  0  0  0  0  5   0  0  0  0  6    19
VecCopy              740 0.0 2.6865e-03 0.0 0.00e+00 0.0 0.0e+00 0.0e+00 0.0e+00  0  0  0  0  0   0  0  0  0  0     0
VecSet             337892815.8 1.2386e-013708.5 0.00e+00 0.0 0.0e+00 0.0e+00 0.0e+00  0  0  0  0  0   0  0  0  0  0     0
VecScatterBegin    17675 0.0 1.0020e+01 0.0 0.00e+00 0.0 2.7e+05 1.2e+04 2.3e+03  1  0 49 72 26   1  0 98100 33     0
VecScatterEnd      13822 0.0 2.4216e+01 0.0 0.00e+00 0.0 0.0e+00 0.0e+00 0.0e+00  1  0  0  0  0   2  0  0  0  0     0
VecSetRandom          13 0.0 1.1464e-02 0.0 0.00e+00 0.0 0.0e+00 0.0e+00 0.0e+00  0  0  0  0  0   0  0  0  0  0     0
EPSSetUp              13 1.0 4.6691e+01 1.0 0.00e+00 0.0 2.5e+03 3.5e+03 4.4e+02  8  0  0  0  5  11  0  1  0  6     0
EPSSolve              13 1.0 4.3259e+02 1.0 1.44e+10 0.0 2.7e+05 1.1e+04 7.0e+03 78100 50 72 81 100100100100100   480
STSetUp               25 1.0 4.0571e+01 1.1 0.00e+00 0.0 1.9e+03 4.1e+03 2.6e+02  7  0  0  0  3   9  0  1  0  4     0
STApply             3853 0.0 2.0479e+02 0.0 4.54e+09 0.0 1.5e+05 1.1e+04 2.3e+03 22 29 27 39 27  28 29 54 54 33   290
STMatSolve          3853 0.0 1.8785e+02 0.0 0.00e+00 0.0 7.5e+04 1.1e+04 2.3e+03 20  0 14 19 27  25  0 27 26 33     0
KSPSetUp              29 2.4 4.6504e-05 3.5 0.00e+00 0.0 0.0e+00 0.0e+00 0.0e+00  0  0  0  0  0   0  0  0  0  0     0
KSPSolve            3853 0.0 1.8738e+02 0.0 0.00e+00 0.0 7.5e+04 1.1e+04 2.3e+03 20  0 14 19 27  25  0 27 26 33     0
PCSetUp               29 2.4 7.9165e+01 2.4 0.00e+00 0.0 0.0e+00 0.0e+00 0.0e+00  9  0  0  0  0  12  0  0  0  0     0
PCApply             3853 0.0 1.8722e+02 0.0 0.00e+00 0.0 7.5e+04 1.1e+04 2.3e+03 20  0 14 19 27  25  0 27 26 33     0
BVCreate              42 0.0 2.1613e-02 0.0 0.00e+00 0.0 0.0e+00 0.0e+00 1.6e+02  0  0  0  0  2   0  0  0  0  2     0
BVCopy               740 0.0 5.3527e-03 0.0 0.00e+00 0.0 0.0e+00 0.0e+00 0.0e+00  0  0  0  0  0   0  0  0  0  0     0
BVMultVec           5541 0.0 1.3590e+00 0.0 1.04e+09 0.0 0.0e+00 0.0e+00 0.0e+00  0  9  0  0  0   0  9  0  0  0 13867
BVMultInPlace        234 0.0 3.4236e-01 0.0 6.34e+08 0.0 0.0e+00 0.0e+00 0.0e+00  0  6  0  0  0   0  6  0  0  0 34192
BVDotVec            5541 0.0 3.8707e+01 0.0 7.58e+09 0.0 1.1e+05 1.2e+04 3.4e+03  4 51 20 29 39   5 51 40 41 48  2757
BVOrthogonalizeV    3078 0.0 3.9994e+01 0.0 8.62e+09 0.0 1.1e+05 1.2e+04 3.4e+03  4 61 20 29 39   6 61 40 41 48  3140
BVScale             3853 0.0 3.2228e-02 0.0 5.67e+06 0.0 0.0e+00 0.0e+00 0.0e+00  0  0  0  0  0   0  0  0  0  0  3358
BVNormVec            836 0.0 5.7222e+00 0.0 9.88e+08 0.0 1.3e+04 1.2e+04 4.2e+02  1  5  2  4  5   1  5  5  5  6  1883
BVSetRandom           13 0.0 1.1570e-02 0.0 0.00e+00 0.0 0.0e+00 0.0e+00 0.0e+00  0  0  0  0  0   0  0  0  0  0     0
DSSolve              226 0.0 7.3153e-01 0.0 0.00e+00 0.0 0.0e+00 0.0e+00 0.0e+00  0  0  0  0  0   0  0  0  0  0     0
DSVectors           4510 0.0 1.0850e-02 0.0 0.00e+00 0.0 0.0e+00 0.0e+00 0.0e+00  0  0  0  0  0   0  0  0  0  0     0
DSOther              234 0.0 2.1292e-02 0.0 0.00e+00 0.0 0.0e+00 0.0e+00 0.0e+00  0  0  0  0  0   0  0  0  0  0     0

--- Event Stage 7: qetsc_eigvals


--- Event Stage 8: qetsc_density

VecCopy             6656 1.0 1.8806e-02 1.1 0.00e+00 0.0 0.0e+00 0.0e+00 0.0e+00  0  0  0  0  0   0  0  0  0  0     0
VecSet                 1 1.0 5.3756e-06 1.1 0.00e+00 0.0 0.0e+00 0.0e+00 0.0e+00  0  0  0  0  0   0  0  0  0  0     0
VecScatterBegin    13312 1.0 3.3568e+00 3.4 0.00e+00 0.0 2.1e+05 7.4e+02 6.7e+03  0  0 38  3 77   8  0 89 95 84     0
VecScatterEnd       6656 1.0 7.1985e-01 1.1 0.00e+00 0.0 0.0e+00 0.0e+00 0.0e+00  0  0  0  0  0   3  0  0  0  0     0
BVCopy              6656 1.0 5.0825e-02 1.1 0.00e+00 0.0 0.0e+00 0.0e+00 0.0e+00  0  0  0  0  0   0  0  0  0  0     0

--- Event Stage 9: Unknown


--- Event Stage 10: siesta_misc


--- Event Stage 11: siesta_move


--- Event Stage 12: siesta_analysis


--- Event Stage 13: qetsc_clean


--- Event Stage 14: siesta_end

------------------------------------------------------------------------------------------------------------------------

Memory usage is given in bytes:

Object Type          Creations   Destructions     Memory  Descendants' Mem.
Reports information only for process 0.

--- Event Stage 0: Main Stage


--- Event Stage 1: siesta_init


--- Event Stage 2: siesta_forces


--- Event Stage 3: siesta_solve


--- Event Stage 4: siesta2qetsc

              Matrix     9              0            0     0.
              Vector    19              1         1648     0.
      Vector Scatter     4              0            0     0.
           Index Set     4              4        44200     0.

--- Event Stage 5: qetsc_setup_eps

              Matrix    19              3      3814178     0.
              Vector    55             11        88304     0.
      Vector Scatter    10              1         1072     0.
           Index Set    53             46       177376     0.
          EPS Solver     2              0            0     0.
  Spectral Transform     2              0            0     0.
       Krylov Solver     2              0            0     0.
      Preconditioner     2              0            0     0.
       Basis Vectors     3              0            0     0.
         PetscRandom     1              0            0     0.
              Region     2              0            0     0.
       Direct Solver     2              0            0     0.

--- Event Stage 6: qetsc_solve_eps

              Matrix    36             36     48342096     0.
              Vector   161            161      1423952     0.
      Vector Scatter    24             24        25728     0.
           Index Set    48             48       461568     0.
       Basis Vectors    13             13        13728     0.

--- Event Stage 7: qetsc_eigvals


--- Event Stage 8: qetsc_density

              Vector    14             13       174512     0.
      Vector Scatter   209            208       232544     0.
           Index Set   417            417       480016     0.

--- Event Stage 9: Unknown


--- Event Stage 10: siesta_misc


--- Event Stage 11: siesta_move

              Matrix     0             25     37177418     0.
              Vector     0             63      1915360     0.
      Vector Scatter     0             14        14176     0.
           Index Set     0              7         5488     0.
          EPS Solver     0              2        29752     0.
  Spectral Transform     0              2         1632     0.
       Krylov Solver     0              2         2336     0.
      Preconditioner     0              2         1952     0.
       Basis Vectors     0              3         3168     0.
         PetscRandom     0              1          638     0.
              Region     0              2         1312     0.
       Direct Solver     0              2       109992     0.

--- Event Stage 12: siesta_analysis


--- Event Stage 13: qetsc_clean


--- Event Stage 14: siesta_end

              Viewer     1              0            0     0.
========================================================================================================================
Average time to get PetscTime(): 1.38125e-07
Average time for MPI_Barrier(): 2.922e-06
Average time for zero size MPI_Send(): 1.07767e-05
#PETSc Option Table entries:
-eps_interval -2.3,0.
-eps_krylovschur_detect_zeros 0
-eps_krylovschur_partitions 16
-ioptbin 7
-ioptdensity 0
-ioptinertia 1
-ioptleft 2
-ioptwrite 1
-log_view
-mat_mumps_cntl_3 1e-12
-mat_mumps_icntl_13 1
-mat_mumps_icntl_24 1
-mat_mumps_icntl_7 5
-mat_type mpisbaij
-roptbuffer 0.1
-roptdiff 0.05
#End of PETSc Option Table entries
Compiled with FORTRAN kernels
Compiled with full precision matrices (default)
sizeof(short) 2 sizeof(int) 4 sizeof(long) 8 sizeof(void*) 8 sizeof(PetscScalar) 8 sizeof(PetscInt) 4
Configure options: --known-has-attribute-aligned=1 --download-chaco=0 --download-cmake=0 --download-hypre=0 --download-metis=1 --download-mumps=1 --download-parmetis=1 --download-plapack=0 --download-prometheus=0 --download-ptscotch=1 --download-spai=0 --download-spooles=0 --download-superlu=0 --download-superlu_dist=0 --download-triangle=0 --known-bits-per-byte=8 --known-level1-dcache-assoc=0 --known-level1-dcache-linesize=32 --known-level1-dcache-size=32768 --known-memcmp-ok=1 --known-mpi-c-double-complex=1 --known-mpi-int64_t=1 --known-mpi-long-double=1 --known-mpi-shared-libraries=0 --known-sdot-returns-double=0 --known-sizeof-MPI_Comm=4 --known-sizeof-MPI_Fint=4 --known-sizeof-char=1 --known-sizeof-double=8 --known-sizeof-float=4 --known-sizeof-int=4 --known-sizeof-long-long=8 --known-sizeof-long=8 --known-sizeof-short=2 --known-sizeof-size_t=8 --known-sizeof-void-p=8 --known-snrm2-returns-double=0 --with-batch=1 --with-blacs-include=/soft/libraries/alcf/current/xl/SCALAPACK/ --with-blacs-lib=/soft/libraries/alcf/current/xl/SCALAPACK/lib/libscalapack.a --with-blas-lapack-lib="-L/soft/libraries/alcf/current/xl/LAPACK/lib -llapack -L/soft/libraries/alcf/current/xl/BLAS/lib -lblas" --with-cc=mpixlc_r --with-clib-autodetect=0 --with-cxx=mpixlcxx_r --with-cxxlib-autodetect=0 --with-debugging=0 --with-fc="mpixlf77_r -qnosave" --with-fortran-kernels=1 --with-fortranlib-autodetect=0 --with-is-color-value-type=short --with-scalapack-include=/soft/libraries/alcf/current/xl/SCALAPACK/ --with-scalapack-lib=/soft/libraries/alcf/current/xl/SCALAPACK/lib/libscalapack.a --with-shared-libraries=0 --with-x=0 -COPTFLAGS=" -g -O3 -qhot=level=0 -qsimd=auto -qmaxmem=-1 -qstrict -qstrict_induction" -CXXOPTFLAGS="  -g -O3 -qhot=level=0 -qsimd=auto -qmaxmem=-1 -qstrict -qstrict_induction" -FOPTFLAGS=" -g -O3 -qhot=level=0 -qsimd=auto -qmaxmem=-1 -qstrict -qstrict_induction" LIBS="-lmpichcxx-gcc -lmpichf77-gcc -L/soft/compilers/ibmcmp-feb2015/vacpp/bg/12.1/bglib64 -libmc++ -L/soft/compilers/ibmcmp-feb2015/xlf/bg/14.1/bglib64 -lxlf90_r -lxlomp_ser -lxlfmath" PETSC_ARCH=arch-xl
-----------------------------------------
Libraries compiled on Sat Aug 20 04:19:47 2016 on vestalac2 
Machine characteristics: Linux-2.6.32-573.18.1.el6.ppc64-ppc64-with-redhat-6.7-Santiago
Using PETSc directory: /home/keceli/scratch2/petsc
Using PETSc arch: arch-xl
-----------------------------------------

Using C compiler: mpixlc_r   -g -O3 -qhot=level=0 -qsimd=auto -qmaxmem=-1 -qstrict -qstrict_induction  ${COPTFLAGS} ${CFLAGS}
Using Fortran compiler: mpixlf77_r -qnosave  -g -O3 -qhot=level=0 -qsimd=auto -qmaxmem=-1 -qstrict -qstrict_induction   ${FOPTFLAGS} ${FFLAGS} 
-----------------------------------------

Using include paths: -I/home/keceli/scratch2/petsc/arch-xl/include -I/home/keceli/scratch2/petsc/include -I/home/keceli/scratch2/petsc/include -I/home/keceli/scratch2/petsc/arch-xl/include -I/bgsys/drivers/V1R2M4/ppc64/comm/include -I/bgsys/drivers/V1R2M4/ppc64/comm/lib/xl -I/bgsys/drivers/V1R2M4/ppc64 -I/bgsys/drivers/V1R2M4/ppc64/comm/sys/include -I/bgsys/drivers/V1R2M4/ppc64/spi/include -I/bgsys/drivers/V1R2M4/ppc64/spi/include/kernel/cnk
-----------------------------------------

Using C linker: mpixlc_r
Using Fortran linker: mpixlf77_r -qnosave
Using libraries: -Wl,-rpath,/home/keceli/scratch2/petsc/arch-xl/lib -L/home/keceli/scratch2/petsc/arch-xl/lib -lpetsc -Wl,-rpath,/home/keceli/scratch2/petsc/arch-xl/lib -L/home/keceli/scratch2/petsc/arch-xl/lib -lcmumps -ldmumps -lsmumps -lzmumps -lmumps_common -lpord -Wl,-rpath,/soft/libraries/alcf/current/xl/SCALAPACK/lib -L/soft/libraries/alcf/current/xl/SCALAPACK/lib -lscalapack -L/soft/libraries/alcf/current/xl/LAPACK/lib -llapack -L/soft/libraries/alcf/current/xl/BLAS/lib -lblas -lparmetis -lmetis -lptesmumps -lptscotch -lptscotcherr -lscotch -lscotcherr -lrt -lm -lpthread -ldl -lmpichcxx-gcc -lmpichf77-gcc -L/soft/compilers/ibmcmp-feb2015/vacpp/bg/12.1/bglib64 -libmc++ -L/soft/compilers/ibmcmp-feb2015/xlf/bg/14.1/bglib64 -lxlf90_r -lxlomp_ser -lxlfmath
-----------------------------------------

