s.subSiesta: Submission time = 18s09m22h
s.subSiesta: Job name = qw128_s32_n4_c16_vesta
s.subSiesta: Number of nodes = 4
s.subSiesta: Number of cores = 64
s.subSiesta: Number of cores/node = 16
s.subSiesta: Number of slices = 32
s.subSiesta: Mapping = ABCDET
18s09m22h
-ioptbin 7
-ioptdensity 0
-ioptinertia 1
-ioptleft 2
-ioptwrite 1
-roptbuffer 0.1
-roptdiff 0.05
# A chain of identical atoms (instead of an xyz file) can be specified with the following options 
#-N 10 # Number of atoms
#-Z 8 # Atomic number
#-c 32 # Maximum number of interactions of an atom

# A petsc matrix (binary) can be given
#-method file
#-fA '/Volumes/s/matrices/petscbinary/graphene_xxs_A'
#-fB '/Volumes/s/matrices/petscbinary/graphene_xxs_B'
#-scfthresh 1.e-3

#PETSc options
-mat_type mpisbaij
-log_view
#-mat_view
#-memory_view
#-mat_mumps_icntl_13 1 #turn off scaLAPACK for matrix inertia
#-mat_mumps_icntl_24 1 #null pivot row detection for matrix inertia
#-mat_mumps_icntl_23 0
#-mat_mumps_icntl_28 1 # serial analysis
#-mat_mumps_icntl_28 2 #parallel analysis
#-mat_mumps_icntl_29 1 #ptscotch
#-mat_mumps_icntl_29 2 #parmetis
-mat_mumps_icntl_7 5 #metis
#-malloc_info 
#-mat_view ::ascii_info 
#-mat_getrow_uppertriangular 1
#-st_type sinvert 
#-st_ksp_type preonly 
#-st_pc_type cholesky 
#-st_pc_factor_mat_solver_package mumps 

#SLEPc options

#-eps_krylovschur_partitions 1  
-eps_interval -2.3,0.
#-eps_tol  1.e-8
-eps_krylovschur_detect_zeros 0
#-eps_purify 1
SystemName liquid_D2O_128
SystemLabel D2O_128

#UseTreeTimer .true.
DM.MixingWeight 0.3
DM.NumberPulay 3

SolutionMethod  qetsc #slepc0 for the older method
#SolutionMethod diagon
#BlockSize 23
WriteDM .false.
WriteDM.NetCDF .false.
WriteDMHS.NetCDF .false.
LongOutput .false.

#MaxSCFIterations 2
##################################################
# Do not change below this line                  #
##################################################

%block SuperCell
1 0 0
0 1 0
0 0 1
%endblock SuperCell

NumberOfAtoms 384
NumberOfSpecies 2

xc.functional GGA
xc.authors PBE 
MeshCutoff 150.0 Ry

%block ChemicalSpeciesLabel
  1   8  O
  2   1  H  
%endblock ChemicalSpeciesLabel

#%block AtomicMass
#  2   2.0
#%endblock AtomicMass

%Block PAO.Basis
O    3     -0.24233
n=2   0   2   E    23.36061     3.39721
     4.50769     2.64066
     1.00000     1.00000
n=2   1   2   E     2.78334     5.14253
     6.14996     2.59356
     1.00000     1.00000
n=3   2   1   E    63.98188     0.16104
     3.54403
     1.00000
H    2      0.46527
n=1   0   2   E    99.93138     2.59932
     4.20357     1.84463
     1.00000     1.00000
n=2   1   1   E    24.56504     2.20231
     3.52816
     1.00000
%EndBlock PAO.Basis

LatticeConstant 15.646046088993955 Ang
%block LatticeVectors   
  1.0  0.0  0.0
  0.0  1.0  0.0
  0.0  0.0  1.0
%endblock LatticeVectors   

AtomicCoordinatesFormat NotScaledCartesianAng
%block AtomicCoordinatesAndAtomicSpecies < coord128.data

Siesta Version: siesta-trunk-492
Architecture  : powerpc64-unknown-linux-gnu--Xlf
Compiler flags: mpixlf90_r -I/home/keceli/scratch2/petsc/include -I/home/keceli/scratch2/petssc/arch-xl/include -I/bgsys/drivers/V1R2M4/ppc64/comm/include -I/bgsys/drivers/V1R2M4/ppc64/comm/lib/xl -I/bgsys/drivers/V1R2M4/ppc64 -I/bgsys/drivers/V1R2M4/ppc64/comm/sys/include -I/bgsys/drivers/V1R2M4/ppc64/spi/include -I/bgsys/drivers/V1R2M4/ppc64/spi/include/kernel/cnk -I/home/keceli/scratch2/slepcfork/include -I/home/keceli/scratch2/slepcfork/arch-xl/include
PP flags      : -WF,-DMPI -WF,-DFC_HAVE_ABORT -WF,-DBSC_CELLXC -WF,-DMPI_TIMING 
PARALLEL version

* Running on   64 nodes in parallel
>> Start of run:  20-DEC-2016  22:10:27

                           ***********************       
                           *  WELCOME TO SIESTA  *       
                           ***********************       
WARNING: Siesta is reading its input from file INPUT_DEBUG

reinit: -----------------------------------------------------------------------
reinit: System Name: liquid_D2O_128
reinit: -----------------------------------------------------------------------
reinit: System Label: D2O_128                                                     
reinit: -----------------------------------------------------------------------

initatom: Reading input for the pseudopotentials and atomic orbitals ----------
Species number:   1 Atomic number:    8 Label: O
Species number:   2 Atomic number:    1 Label: H
 
Ground state valence configuration:   2s02  2p04
Reading pseudopotential information in formatted form from O.psf

Valence configuration for pseudopotential generation:
2s( 2.00) rc: 1.14
2p( 4.00) rc: 1.14
3d( 0.00) rc: 1.14
4f( 0.00) rc: 1.14
Ground state valence configuration:   1s01
Reading pseudopotential information in formatted form from H.psf

Valence configuration for pseudopotential generation:
1s( 0.60) rc: 1.25
2p( 0.00) rc: 1.25
3d( 0.00) rc: 1.25
4f( 0.00) rc: 1.25
For O, standard SIESTA heuristics set lmxkb to 3
 (one more than the basis l, including polarization orbitals).
Use PS.lmax or PS.KBprojectors blocks to override.
For H, standard SIESTA heuristics set lmxkb to 2
 (one more than the basis l, including polarization orbitals).
Use PS.lmax or PS.KBprojectors blocks to override.

<basis_specs>
===============================================================================
O                    Z=   8    Mass=  16.000        Charge=-0.24233    
Lmxo=2 Lmxkb= 3    BasisType=split      Semic=F
L=0  Nsemic=0  Cnfigmx=2
          n=1  nzeta=2  polorb=0
            splnorm:   0.15000    
               vcte:    23.361    
               rinn:    3.3972    
               qcoe:    0.0000    
               qyuk:    0.0000    
               qwid:   0.10000E-01
                rcs:    4.5077      2.6407    
            lambdas:    1.0000      1.0000    
L=1  Nsemic=0  Cnfigmx=2
          n=1  nzeta=2  polorb=0
            splnorm:   0.15000    
               vcte:    2.7833    
               rinn:    5.1425    
               qcoe:    0.0000    
               qyuk:    0.0000    
               qwid:   0.10000E-01
                rcs:    6.1500      2.5936    
            lambdas:    1.0000      1.0000    
L=2  Nsemic=0  Cnfigmx=3
          n=1  nzeta=1  polorb=0
            splnorm:   0.15000    
               vcte:    63.982    
               rinn:   0.16104    
               qcoe:    0.0000    
               qyuk:    0.0000    
               qwid:   0.10000E-01
                rcs:    3.5440    
            lambdas:    1.0000    
-------------------------------------------------------------------------------
L=0  Nkbl=1  erefs: 0.17977+309
L=1  Nkbl=1  erefs: 0.17977+309
L=2  Nkbl=1  erefs: 0.17977+309
L=3  Nkbl=1  erefs: 0.17977+309
===============================================================================
</basis_specs>

atom: Called for O                     (Z =   8)

read_vps: Pseudopotential generation method:
read_vps: ATM3      Troullier-Martins                       
Total valence charge:    6.00000

read_vps: Pseudopotential includes a core correction:
read_vps: Pseudo-core for xc-correction

xc_check: Exchange-correlation functional:
xc_check: GGA Perdew, Burke & Ernzerhof 1996
V l=0 = -2*Zval/r beyond r=  1.1278
V l=1 = -2*Zval/r beyond r=  1.1278
V l=2 = -2*Zval/r beyond r=  1.1278
V l=3 = -2*Zval/r beyond r=  1.1278
All V_l potentials equal beyond r=  1.1278
This should be close to max(r_c) in ps generation
All pots = -2*Zval/r beyond r=  1.1278

VLOCAL1: 99.0% of the norm of Vloc inside     34.126 Ry
VLOCAL1: 99.9% of the norm of Vloc inside     77.774 Ry
atom: Maximum radius for 4*pi*r*r*local-pseudopot. charge    1.37759
atom: Maximum radius for r*vlocal+2*Zval:    1.18566
GHOST: No ghost state for L =  0
GHOST: No ghost state for L =  1
GHOST: No ghost state for L =  2
GHOST: No ghost state for L =  3

KBgen: Kleinman-Bylander projectors: 
   l= 0   rc=  1.262145   el= -1.757696   Ekb=  9.253654   kbcos=  0.328369
   l= 1   rc=  1.262145   el= -0.664256   Ekb= -7.897175   kbcos= -0.393093
   l= 2   rc=  1.343567   el=  0.002031   Ekb= -1.922379   kbcos= -0.003517
   l= 3   rc=  1.394919   el=  0.003153   Ekb= -0.738278   kbcos= -0.000358

KBgen: Total number of  Kleinman-Bylander projectors:   16
atom: -------------------------------------------------------------------------

atom: SANKEY-TYPE ORBITALS:
atom: Selected multiple-zeta basis: split     

atom: basis set generated (by rescaling the valence charge)
atom: for an anion of charge  -0.2423

SPLIT: Orbitals with angular momentum L= 0

SPLIT: Basis orbitals for state 2s

   izeta = 1
                 lambda =    1.000000
                     rc =    4.574469
                 energy =   -1.754694
                kinetic =    1.490893
    potential(screened) =   -3.245588
       potential(ionic) =  -11.054474

   izeta = 2
                 rmatch =    2.639108
              splitnorm =    0.147036
                 energy =   -1.549986
                kinetic =    2.329570
    potential(screened) =   -3.879556
       potential(ionic) =  -12.328390

SPLIT: Orbitals with angular momentum L= 1

SPLIT: Basis orbitals for state 2p

   izeta = 1
                 lambda =    1.000000
                     rc =    6.174996
                 energy =   -0.657397
                kinetic =    4.283704
    potential(screened) =   -4.941101
       potential(ionic) =  -12.288569

   izeta = 2
                 rmatch =    2.639108
              splitnorm =    0.214885
                 energy =   -0.410839
                kinetic =    7.128014
    potential(screened) =   -7.538853
       potential(ionic) =  -16.113011

SPLIT: Orbitals with angular momentum L= 2

SPLIT: Basis orbitals for state 3d

   izeta = 1
                 lambda =    1.000000
                     rc =    3.562532
                 energy =    3.658838
                kinetic =    6.488135
    potential(screened) =   -2.829297
       potential(ionic) =  -10.001422
atom: Total number of Sankey-type orbitals: 13

atm_pop: Valence configuration (for local Pseudopot. screening):
 2s( 2.00)                                                            
 2p( 4.00)                                                            
 3d( 0.00)                                                            
Vna: chval, zval:    6.00000   6.00000

Vna:  Cut-off radius for the neutral-atom potential:   6.174996
comcore: Pseudo-core radius Rcore=  1.377587

atom: _________________________________________________________________________

<basis_specs>
===============================================================================
H                    Z=   1    Mass=  1.0100        Charge= 0.46527    
Lmxo=1 Lmxkb= 2    BasisType=split      Semic=F
L=0  Nsemic=0  Cnfigmx=1
          n=1  nzeta=2  polorb=0
            splnorm:   0.15000    
               vcte:    99.931    
               rinn:    2.5993    
               qcoe:    0.0000    
               qyuk:    0.0000    
               qwid:   0.10000E-01
                rcs:    4.2036      1.8446    
            lambdas:    1.0000      1.0000    
L=1  Nsemic=0  Cnfigmx=2
          n=1  nzeta=1  polorb=0
            splnorm:   0.15000    
               vcte:    24.565    
               rinn:    2.2023    
               qcoe:    0.0000    
               qyuk:    0.0000    
               qwid:   0.10000E-01
                rcs:    3.5282    
            lambdas:    1.0000    
-------------------------------------------------------------------------------
L=0  Nkbl=1  erefs: 0.17977+309
L=1  Nkbl=1  erefs: 0.17977+309
L=2  Nkbl=1  erefs: 0.17977+309
===============================================================================
</basis_specs>

atom: Called for H                     (Z =   1)

read_vps: Pseudopotential generation method:
read_vps: ATM 3.2.2 Troullier-Martins                       
Total valence charge:    0.60000

atom: Pseudopotential generated from an ionic configuration
atom: with net charge 0.40

xc_check: Exchange-correlation functional:
xc_check: GGA Perdew, Burke & Ernzerhof 1996
xc_check: WARNING: Pseudopotential generated with GGA revPBE functional
V l=0 = -2*Zval/r beyond r=  1.2343
V l=1 = -2*Zval/r beyond r=  1.2189
V l=2 = -2*Zval/r beyond r=  1.2189
All V_l potentials equal beyond r=  1.2343
This should be close to max(r_c) in ps generation
All pots = -2*Zval/r beyond r=  1.2343

VLOCAL1: 99.0% of the norm of Vloc inside     28.493 Ry
VLOCAL1: 99.9% of the norm of Vloc inside     64.935 Ry
atom: Maximum radius for 4*pi*r*r*local-pseudopot. charge    1.45251
atom: Maximum radius for r*vlocal+2*Zval:    1.21892
GHOST: No ghost state for L =  0
GHOST: No ghost state for L =  1
GHOST: No ghost state for L =  2

KBgen: Kleinman-Bylander projectors: 
   l= 0   rc=  1.364359   el= -0.835481   Ekb= -2.050473   kbcos= -0.374935
   l= 1   rc=  1.434438   el= -0.083696   Ekb= -0.439790   kbcos= -0.040392
   l= 2   rc=  1.470814   el= -0.018512   Ekb= -0.135383   kbcos= -0.004767

KBgen: Total number of  Kleinman-Bylander projectors:    9
atom: -------------------------------------------------------------------------

atom: SANKEY-TYPE ORBITALS:
atom: Selected multiple-zeta basis: split     

atom: basis set generated (by rescaling the valence charge)
atom: for a cation of charge   0.4653

SPLIT: Orbitals with angular momentum L= 0

SPLIT: Basis orbitals for state 1s

   izeta = 1
                 lambda =    1.000000
                     rc =    4.260636
                 energy =   -0.844786
                kinetic =    1.360018
    potential(screened) =   -2.204804
       potential(ionic) =   -2.290935

   izeta = 2
                 rmatch =    1.865767
              splitnorm =    0.575404
                 energy =    0.510436
                kinetic =    4.363202
    potential(screened) =   -3.852766
       potential(ionic) =   -3.849391

SPLIT: Orbitals with angular momentum L= 1

SPLIT: Basis orbitals for state 2p

   izeta = 1
                 lambda =    1.000000
                     rc =    3.576223
                 energy =    0.852340
                kinetic =    2.004908
    potential(screened) =   -1.152567
       potential(ionic) =   -1.298457
atom: Total number of Sankey-type orbitals:  5

atm_pop: Valence configuration (for local Pseudopot. screening):
 1s( 1.00)                                                            
 2p( 0.00)                                                            
Vna: chval, zval:    1.00000   1.00000

Vna:  Cut-off radius for the neutral-atom potential:   4.260636

atom: _________________________________________________________________________

prinput: Basis input ----------------------------------------------------------

PAO.BasisType split     

%block ChemicalSpeciesLabel
    1    8 O                       # Species index, atomic number, species label
    2    1 H                       # Species index, atomic number, species label
%endblock ChemicalSpeciesLabel

%block PAO.Basis                 # Define Basis set
O                     3  -0.242            # Label, l-shells, ionic net charge
 n=2   0   2                         # n, l, Nzeta 
   4.574      2.639   
   1.000      1.000   
 n=2   1   2                         # n, l, Nzeta 
   6.175      2.639   
   1.000      1.000   
 n=3   2   1                         # n, l, Nzeta 
   3.563   
   1.000   
H                     2   0.465            # Label, l-shells, ionic net charge
 n=1   0   2                         # n, l, Nzeta 
   4.261      1.866   
   1.000      1.000   
 n=2   1   1                         # n, l, Nzeta 
   3.576   
   1.000   
%endblock PAO.Basis

prinput: ----------------------------------------------------------------------

coor:   Atomic-coordinates input format  =     Cartesian coordinates
coor:                                          (in Angstroms)

siesta: Atomic coordinates (Bohr) and species
siesta:     26.49397   0.45353   4.66763  1        1
siesta:     26.96640   1.47399   3.25033  2        2
siesta:     25.77587   1.62517   5.85815  2        3
siesta:     20.33346  14.00288  21.97752  1        4
siesta:     21.22163  14.47531  20.46574  2        5
siesta:     18.59491  14.07847  21.50509  2        6
siesta:     11.07380   3.60938  13.00132  1        7
siesta:     11.41395   5.36682  12.83125  2        8
siesta:     11.58403   2.89128  11.43285  2        9
siesta:     14.09736  13.00132  25.01998  1       10
siesta:     14.15405  13.00132  26.83412  2       11
siesta:     13.53044  11.33836  24.56645  2       12
siesta:     17.17762   8.63605  20.03110  1       13
siesta:     16.83747   9.24076  18.34925  2       14
siesta:     18.95396   8.86282  20.23897  2       15
siesta:     22.75231   1.79524   9.37305  1       16
siesta:     21.27832   2.30547   8.48487  2       17
siesta:     23.45151   3.32592  10.03445  2       18
siesta:     27.17427  25.60580  26.85302  1       19
siesta:     28.61046  25.54911  27.94906  2       20
siesta:     27.57112  24.43417  25.53021  2       21
siesta:     24.09402  25.03888   4.02512  1       22
siesta:     23.67828  24.96329   2.26767  2       23
siesta:     24.75542  26.70184   4.28968  2       24
siesta:     28.81833  16.93195   4.57314  1       25
siesta:     29.17738  18.65160   4.13850  2       26
siesta:     29.02620  16.00599   3.04246  2       27
siesta:      3.17474   7.14317  26.24831  1       28
siesta:      1.79524   7.97465  25.45462  2       29
siesta:      4.62983   8.12583  25.81367  2       30
siesta:      1.56847   2.39995  27.68450  1       31
siesta:      0.15118   1.90862  26.68294  2       32
siesta:      2.22988   3.85504  26.85302  2       33
siesta:     21.97752   5.87705  29.00731  1       34
siesta:     21.33502   4.25189  28.51598  2       35
siesta:     21.18384   7.02978  27.87347  2       36
siesta:      2.81569  25.05778  28.47818  1       37
siesta:      3.53379  25.98374  29.85768  2       38
siesta:      3.38261  23.35702  28.74275  2       39
siesta:      2.05980   4.45976  19.10514  1       40
siesta:      0.77479   4.66763  17.83902  2       41
siesta:      3.36371   5.61249  18.61381  2       42
siesta:      9.12738  25.19006  29.38525  1       43
siesta:     10.37460  24.79322  28.13803  2       44
siesta:      7.54001  24.81211  28.59157  2       45
siesta:     20.99487   3.64717  16.91306  1       46
siesta:     19.33191   3.02356  17.30990  2       47
siesta:     21.78855   3.83615  18.51932  2       48
siesta:      2.04091  15.04223  21.58068  1       49
siesta:      1.11494  13.51155  21.42950  2       50
siesta:      2.47554  15.13671  23.33813  2       51
siesta:     16.47842   9.58092   2.28657  1       52
siesta:     17.95241   9.54312   3.34482  2       53
siesta:     16.74298  10.97931   1.19053  2       54
siesta:     25.90816   8.05024   4.72432  1       55
siesta:     26.00264   7.02978   6.21720  2       56
siesta:     26.55066   6.99199   3.40151  2       57
siesta:     10.56357  15.04223  21.08935  1       58
siesta:     12.32102  14.72097  21.37281  2       59
siesta:      9.80768  13.41706  21.08935  2       60
siesta:      7.97465  10.88483  12.77455  1       61
siesta:      7.02978   9.93996  11.56513  2       62
siesta:      7.36993  10.33681  14.38082  2       63
siesta:      2.30547  13.43596   7.38883  1       64
siesta:      1.58737  14.41862   6.04713  2       65
siesta:      2.83459  14.64538   8.61715  2       66
siesta:     12.66117   3.38261   7.67229  1       67
siesta:     12.30212   2.05980   6.50066  2       68
siesta:     12.49109   4.91329   6.70853  2       69
siesta:     26.55066   6.27389   9.44863  1       70
siesta:     25.43572   7.59670   9.95886  2       71
siesta:     28.19473   6.99199   9.59981  2       72
siesta:      7.89906   4.51645   3.28812  1       73
siesta:      8.86282   3.19364   4.06291  2       74
siesta:      6.29279   3.74166   2.91018  2       75
siesta:     28.85613  22.79011   3.74166  1       76
siesta:     27.43883  23.79166   4.25189  2       77
siesta:     30.29232  23.82946   4.08181  2       78
siesta:     15.38238  23.18695   9.52422  1       79
siesta:     16.47842  22.63893  10.84703  2       80
siesta:     16.47842  23.82946   8.23921  2       81
siesta:     23.64048  15.23120  17.51777  1       82
siesta:     24.35858  13.64383  17.08313  2       83
siesta:     24.45307  16.42173  16.42173  2       84
siesta:     23.45151   9.97776  10.90372  1       85
siesta:     21.73186   9.46753  11.13049  2       86
siesta:     23.39482  11.77300  11.01711  2       87
siesta:     11.01711   5.66918  18.25476  1       88
siesta:     11.41395   5.40462  16.49732  2       89
siesta:     11.09270   4.02512  18.97286  2       90
siesta:     22.35547  25.05778  19.72875  1       91
siesta:     21.20274  24.71763  21.08935  2       92
siesta:     23.43261  23.62159  19.67206  2       93
siesta:     21.76965  16.79967  27.74119  1       94
siesta:     21.46730  17.95241  26.38059  2       95
siesta:     22.80900  17.72564  28.89392  2       96
siesta:     21.59958  19.29411  23.22474  1       97
siesta:     20.42795  18.14138  22.44996  2       98
siesta:     23.22474  18.50043  22.99798  2       99
siesta:     20.22008   7.36993   4.81880  1      100
siesta:     21.71296   8.22031   5.40462  2      101
siesta:     20.71141   6.61404   3.25033  2      102
siesta:     16.42173   1.88973   2.19208  1      103
siesta:     15.79812   3.17474   1.07714  2      104
siesta:     14.94774   1.09604   2.85349  2      105
siesta:      8.46598  10.63916   3.53379  1      106
siesta:      9.24076  10.97931   1.94642  2      107
siesta:      8.84392  12.09425   4.55424  2      108
siesta:     17.10203  15.02333  29.66871  1      109
siesta:     15.89260  16.04378  28.76164  2      110
siesta:     18.70830  15.53355  29.02620  2      111
siesta:      5.78256   4.19519  12.35881  1      112
siesta:      4.89439   2.60782  12.32102  2      113
siesta:      7.48332   3.74166  12.73676  2      114
siesta:     14.04067  22.35547  16.95085  1      115
siesta:     13.34147  20.74920  16.49732  2      116
siesta:     14.17295  23.24364  15.38238  2      117
siesta:      8.42818  16.00599  26.19161  1      118
siesta:      6.76522  15.32568  26.45618  2      119
siesta:      9.01400  15.15561  24.69873  2      120
siesta:     -0.20787  22.35547  23.26254  1      121
siesta:      1.51178  22.52554  22.77121  2      122
siesta:     -1.02045  21.63737  21.82635  2      123
siesta:      1.49288   8.88172   9.33525  1      124
siesta:      1.92752  10.54468   8.76833  2      125
siesta:      3.00467   7.91796   9.16518  2      126
siesta:      4.81880  22.56334   8.10693  1      127
siesta:      4.83770  20.78700   7.78567  2      128
siesta:      5.78256  23.26254   6.74632  2      129
siesta:     16.72408   3.28812  20.10669  1      130
siesta:     16.62960   5.08337  20.06890  2      131
siesta:     15.02333   2.72121  19.86103  2      132
siesta:     29.91438  14.09736  14.75877  1      133
siesta:     29.08290  12.54779  15.13671  2      134
siesta:     28.61046  15.34458  14.85325  2      135
siesta:      8.18252  27.43883  18.78389  1      136
siesta:      6.40617  27.60891  19.02955  2      137
siesta:      8.42818  25.71918  18.31145  2      138
siesta:     27.77899   6.23610  21.73186  1      139
siesta:     29.21518   5.57469  20.86258  2      140
siesta:     27.11758   4.83770  22.65783  2      141
siesta:     29.68761  13.09581   1.07714  1      142
siesta:     28.15693  12.39661   0.39684  2      143
siesta:     30.65137  11.65961   1.58737  2      144
siesta:     19.40750  24.11291  24.01843  1      145
siesta:     17.87682  24.58535  23.16805  2      146
siesta:     19.27521  22.33657  24.22630  2      147
siesta:     23.75387  12.45330   3.68497  1      148
siesta:     23.79166  13.81390   4.87550  2      149
siesta:     24.67983  11.13049   4.47865  2      150
siesta:     22.29878  21.18384   9.01400  1      151
siesta:     20.93817  20.82479  10.16673  2      152
siesta:     21.97752  22.88459   8.46598  2      153
siesta:      6.85971  10.67696  25.98374  1      154
siesta:      7.23765  10.31791  24.26409  2      155
siesta:      8.06913   9.71320  26.92861  2      156
siesta:     13.13360  18.44373  28.89392  1      157
siesta:     11.50844  18.34925  28.11914  2      158
siesta:     12.98242  19.76654  30.12225  2      159
siesta:     26.19161   2.75900  25.09557  1      160
siesta:     24.45307   3.23143  24.90660  2      161
siesta:     26.49397   1.62517  23.71607  2      162
siesta:      8.46598  22.33657   4.53534  1      163
siesta:      7.86126  20.80589   3.76056  2      164
siesta:      8.22031  23.60269   3.26923  2      165
siesta:     25.37903  10.71475  16.27055  1      166
siesta:     24.45307   9.67540  17.42328  2      167
siesta:     24.81211  10.18563  14.62649  2      168
siesta:     20.50354   0.94486  23.43261  1      169
siesta:     19.97441   1.02045  25.15226  2      170
siesta:     19.10514   1.58737  22.48775  2      171
siesta:     14.02177   7.88016  24.11291  1      172
siesta:     15.04223   8.50377  22.75231  2      173
siesta:     13.36037   6.31169  23.50820  2      174
siesta:     11.71631  17.83902  16.93195  1      175
siesta:     10.96042  17.36659  18.51932  2      176
siesta:     10.60137  17.15872  15.68473  2      177
siesta:     17.65005   4.08181   8.08803  1      178
siesta:     17.97130   5.32903   6.80302  2      179
siesta:     15.85481   4.08181   8.25811  2      180
siesta:      6.51956  17.83902   2.72121  1      181
siesta:      5.65028  16.28945   3.04246  2      182
siesta:      5.97154  18.33035   1.07714  2      183
siesta:     18.57602  20.69251  13.19029  1      184
siesta:     18.25476  19.50198  14.51310  2      185
siesta:     18.57602  22.29878  14.02177  2      186
siesta:      3.42041  26.90971   4.25189  1      187
siesta:      4.38417  28.30811   4.89439  2      188
siesta:      2.04091  26.73964   5.40462  2      189
siesta:     29.19628  28.76164  14.77766  1      190
siesta:     28.13803  27.34435  14.49421  2      191
siesta:     30.21673  28.30811  16.19496  2      192
siesta:     12.73676  26.24831  13.19029  1      193
siesta:     13.60603  27.83568  13.11470  2      194
siesta:     13.03912  25.49242  11.56513  2      195
siesta:     26.26720  24.86881  12.83125  1      196
siesta:     24.62314  24.47196  12.18874  2      197
siesta:     27.36325  23.71607  11.96197  2      198
siesta:     11.24387  13.56824  29.70651  1      199
siesta:     12.50999  14.85325  29.91438  2      200
siesta:     10.05335  14.30523  28.55377  2      201
siesta:     22.58224  24.33968  28.49708  1      202
siesta:     21.37281  24.35858  27.13648  2      203
siesta:     24.15071  24.77432  27.70340  2      204
siesta:     11.82969   0.90707  20.59802  1      205
siesta:     11.30057   0.96376  22.33657  2      206
siesta:     10.73365  -0.32125  19.82323  2      207
siesta:      2.66451   4.34637   3.57158  1      208
siesta:      2.34326   6.10382   3.72276  2      209
siesta:      2.38106   3.96843   1.83304  2      210
siesta:     28.96951  18.34925  27.59001  1      211
siesta:     28.04355  18.51932  26.04044  2      212
siesta:     27.76009  18.67050  28.87503  2      213
siesta:      7.76678  25.64359  11.73520  1      214
siesta:      9.16518  26.32390  12.64227  2      215
siesta:      8.16362  23.88615  11.54623  2      216
siesta:     21.33502  26.60735  10.48798  1      217
siesta:     21.37281  26.66405  12.28322  2      218
siesta:     22.22319  28.08134   9.95886  2      219
siesta:      4.83770  10.43129  17.66895  1      220
siesta:      4.30858  12.15094  17.70674  2      221
siesta:      3.45820   9.54312  16.89416  2      222
siesta:      6.84081   7.82347   8.69274  1      223
siesta:      6.55735   6.33059   9.65650  2      224
siesta:      7.40773   7.21876   7.08648  2      225
siesta:     17.04534  10.56357  15.36348  1      226
siesta:     18.46263   9.69430  14.64538  2      227
siesta:     15.62804   9.99666  14.39972  2      228
siesta:     26.43728  28.11914  21.73186  1      229
siesta:     26.39948  27.74119  23.48931  2      230
siesta:     24.92550  27.36325  21.07045  2      231
siesta:     20.40905   1.05825  28.81833  1      232
siesta:     19.19963   1.53068  30.08445  2      233
siesta:     20.54133  -0.73699  28.96951  2      234
siesta:      9.78879  14.73987   6.16051  1      235
siesta:      9.46753  16.02488   4.93219  2      236
siesta:     11.56513  14.89105   6.50066  2      237
siesta:     24.49086  19.29411   1.28501  1      238
siesta:     23.92394  18.42484   2.77790  2      239
siesta:     24.58535  21.03266   1.79524  2      240
siesta:     24.37748  16.51621   7.16206  1      241
siesta:     26.07823  16.74298   6.55735  2      242
siesta:     23.71607  18.19807   7.31324  2      243
siesta:     15.15561  25.53021  21.63737  1      244
siesta:     14.75877  27.28766  21.35391  2      245
siesta:     15.21230  24.81211  19.97441  2      246
siesta:      3.26923  14.89105  26.55066  1      247
siesta:      2.68341  13.19029  26.58846  2      248
siesta:      2.11649  15.79812  27.57112  2      249
siesta:      0.86927   7.99354  15.09892  1      250
siesta:      1.20943   8.73054  13.47375  2      251
siesta:     -0.83148   7.44552  15.00443  2      252
siesta:      9.03289   6.42507  28.25142  1      253
siesta:      8.29590   5.99043  29.83879  2      254
siesta:     10.80924   6.21720  28.49708  2      255
siesta:     29.17738  11.18718  24.15071  1      256
siesta:     28.47818   9.82658  23.18695  2      257
siesta:     27.98686  11.47064  25.47352  2      258
siesta:     10.88483  26.15382   7.69119  1      259
siesta:     10.60137  24.39637   7.40773  2      260
siesta:      9.88327  26.53177   9.16518  2      261
siesta:     19.74765   9.88327  25.88926  1      262
siesta:     19.06734  11.31946  25.01998  2      263
siesta:     21.03266  10.56357  26.94751  2      264
siesta:      4.00622  20.01221  28.44039  1      265
siesta:      4.96998  18.99176  27.28766  2      266
siesta:      2.28657  19.70985  27.98686  2      267
siesta:     18.40594  24.47196   5.36682  1      268
siesta:     20.08780  23.82946   5.21565  2      269
siesta:     18.10358  25.32234   3.77945  2      270
siesta:     26.62625  18.10358  14.28634  1      271
siesta:     27.81678  19.29411  13.60603  2      272
siesta:     25.62470  17.61225  12.86904  2      273
siesta:      5.17785  28.87503  24.90660  1      274
siesta:      3.93063  28.28921  23.73497  2      275
siesta:      4.21409  29.61202  26.24831  2      276
siesta:      2.94797  20.65471  17.06423  1      277
siesta:      3.91173  21.33502  18.42484  2      278
siesta:      3.55269  18.95396  16.87526  2      279
siesta:      0.88817  21.37281  12.16984  1      280
siesta:      1.90862  22.29878  10.99821  2      281
siesta:      1.70075  21.61848  13.75721  2      282
siesta:      3.72276  17.61225  10.11004  1      283
siesta:      5.17785  17.36659  11.16829  2      284
siesta:      2.41885  18.14138  11.22498  2      285
siesta:      9.42974   2.58893  24.71763  1      286
siesta:      8.08803   1.37950  24.75542  2      287
siesta:      8.88172   3.89284  25.85146  2      288
siesta:      8.86282  20.69251  11.11159  1      289
siesta:      7.69119  20.69251   9.75099  2      290
siesta:      8.65495  19.04845  11.86748  2      291
siesta:     12.32102   8.03134   5.51800  1      292
siesta:     13.51155   8.27700   4.17630  2      293
siesta:     10.84703   8.91951   4.95108  2      294
siesta:      9.01400  20.67361  22.14760  1      295
siesta:      8.65495  21.80745  20.78700  2      296
siesta:      9.16518  19.04845  21.35391  2      297
siesta:     16.93195   0.52912  12.71786  1      298
siesta:     16.70519   2.02201  11.71631  2      299
siesta:     18.00910  -0.52912  11.71631  2      300
siesta:      9.27856   9.59981  20.93817  1      301
siesta:      7.55891   9.84548  20.40905  2      302
siesta:      9.76989   8.05024  20.12559  2      303
siesta:      3.15584   9.58092   3.38261  1      304
siesta:      2.66451   9.90217   5.10226  2      305
siesta:      4.85660  10.20453   3.26923  2      306
siesta:     13.85170  21.58068   4.04402  1      307
siesta:     15.25010  22.33657   4.87550  2      308
siesta:     12.39661  22.39326   4.76211  2      309
siesta:     26.02154  17.00754  21.80745  1      310
siesta:     27.62781  16.21386  22.09091  2      311
siesta:     25.41683  16.27055  20.27677  2      312
siesta:     26.58846  21.86414  18.25476  1      313
siesta:     26.70184  20.29567  17.36659  2      314
siesta:     26.55066  23.11136  16.95085  2      315
siesta:      2.21098  28.74275  20.10669  1      316
siesta:      0.43464  28.55377  20.44684  2      317
siesta:      2.49444  30.51909  20.23897  2      318
siesta:     11.73520  23.28144  25.60580  1      319
siesta:     10.75255  22.07201  24.67983  2      320
siesta:     12.88794  23.98063  24.37748  2      321
siesta:     25.22785  11.58403  28.17583  1      322
siesta:     24.62314  13.26588  28.00575  2      323
siesta:     24.45307  10.96042  29.66871  2      324
siesta:     27.00420   3.77945  16.32724  1      325
siesta:     27.98686   2.72121  15.25010  2      326
siesta:     25.32234   3.70386  15.64694  2      327
siesta:     14.30523   6.25500  28.83723  1      328
siesta:     15.19340   7.52111  29.76320  2      329
siesta:     14.15405   6.93530  27.17427  2      330
siesta:      4.93219  24.26409  21.05156  1      331
siesta:      3.85504  25.70029  20.76810  2      332
siesta:      5.95264  24.73652  22.44996  2      333
siesta:     17.72564  18.08469   4.06291  1      334
siesta:     17.53667  16.98864   2.62672  2      335
siesta:     16.45952  19.35080   3.83615  2      336
siesta:     18.06579  14.68318  12.85014  1      337
siesta:     17.47997  13.43596  14.02177  2      338
siesta:     17.02644  14.45641  11.37616  2      339
siesta:      5.61249   1.24722   6.87861  1      340
siesta:      4.89439   2.81569   6.31169  2      341
siesta:      4.72432   0.85038   8.39039  2      342
siesta:      4.34637  15.85481  16.96975  1      343
siesta:      3.70386  15.83591  18.67050  2      344
siesta:      3.04246  15.13671  15.96819  2      345
siesta:     12.45330   8.97620  12.33992  1      346
siesta:     10.84703   9.73209  12.66117  2      347
siesta:     12.69896   9.18407  10.56357  2      348
siesta:     22.37437   9.14628  19.86103  1      349
siesta:     22.43106  10.37460  21.20274  2      350
siesta:     23.43261   7.80457  20.42795  2      351
siesta:     14.62649  15.96819   8.40928  1      352
siesta:     13.09581  16.79967   8.90061  2      353
siesta:     15.38238  17.08313   7.21876  2      354
siesta:      0.01890  27.23096   8.12583  1      355
siesta:      0.94486  28.17583   9.35415  2      356
siesta:     -0.96376  28.47818   7.23765  2      357
siesta:      8.82502  22.63893  17.02644  1      358
siesta:      8.48487  22.97908  15.28789  2      359
siesta:     10.60137  22.86570  17.19651  2      360
siesta:     15.81701  10.62027   8.01244  1      361
siesta:     14.58869   9.95886   6.85971  2      362
siesta:     15.81701  12.39661   7.72898  2      363
siesta:     11.50844  29.47974   4.15740  1      364
siesta:     10.97931  28.78054   2.57003  2      365
siesta:     11.01711  28.25142   5.38572  2      366
siesta:     19.38860  25.56800  15.51466  1      367
siesta:     20.18228  25.39793  17.12093  2      368
siesta:     19.12404  27.34435  15.32568  2      369
siesta:     23.26254  15.04223  11.75410  1      370
siesta:     21.56178  15.17451  12.32102  2      371
siesta:     23.16805  15.30679   9.95886  2      372
siesta:     19.10514   7.84237  10.99821  1      373
siesta:     18.67050   6.40617   9.97776  2      374
siesta:     18.16028   9.20297  10.28011  2      375
siesta:     26.62625   4.04402   1.28501  1      376
siesta:     24.92550   4.08181   0.66140  2      377
siesta:     27.60891   3.32592  -0.05669  2      378
siesta:      3.32592  29.34746  11.67851  1      379
siesta:      4.64873  28.19473  12.15094  2      380
siesta:      1.88973  28.81833  12.64227  2      381
siesta:      8.10693  16.10047  13.19029  1      382
siesta:      6.97309  16.51621  14.53200  2      383
siesta:      8.06913  14.28634  13.13360  2      384

siesta: System type = bulk      

initatomlists: Number of atoms, orbitals, and projectors:    384  2944  4352

siesta: ******************** Simulation parameters ****************************
siesta:
siesta: The following are some of the parameters of the simulation.
siesta: A complete list of the parameters used, including default values,
siesta: can be found in file out.fdf
siesta:
redata: Non-Collinear-spin run           =     F
redata: SpinPolarized (Up/Down) run      =     F
redata: Number of spin components        =     1
redata: Long output                      =     F
redata: Number of Atomic Species         =        2
redata: Charge density info will appear in .RHO file
redata: Write Mulliken Pop.              =     NO
redata: Mesh Cutoff                      =   150.0000  Ry
redata: Net charge of the system         =     0.0000 |e|
redata: Min. number of SCF Iter          =        0
redata: Max. number of SCF Iter          =       50
redata: Mix DM or H after convergence    =     F
redata: Recompute H after scf cycle      =     F
redata: Performing Pulay mixing using    =     3 iterations
redata: Mix DM in first SCF step ?       =     F
redata: Write Pulay info on disk?        =     F
redata: Discard 1st Pulay DM after  kick =     F
redata: New DM Mixing Weight             =     0.3000
redata: New DM Occupancy tolerance       = 0.000000000001
redata: No kicks to SCF
redata: DM Mixing Weight for Kicks       =     0.5000
redata: DM Tolerance for SCF             =     0.000100
redata: Require (free) Energy convergence in SCF =     F
redata: DM (free)Energy tolerance for SCF =     0.000010 eV
redata: Require Harris convergence for SCF =     F
redata: DM Harris energy tolerance for SCF =     0.000010 eV
redata: Using Saved Data (generic)   =     F
redata: Use continuation files for DM    =     F
redata: Neglect nonoverlap interactions  =     F
redata: Method of Calculation            =     QETSc
redata: Fix the spin of the system       =     F
redata: Dynamics option                  =     Single-point calculation
redata: ***********************************************************************
Total number of electrons:  1024.000000
Total ionic charge:  1024.000000

* ProcessorY, Blocksize:    8  46


* Orbital distribution balance (max,min):    46    46

 Kpoints in:  1 . Kpoints trimmed:  1

siesta: k-grid: Number of k-points =     1
siesta: k-grid: Cutoff (effective) =     7.823 Ang
siesta: k-grid: Supercell and displacements
siesta: k-grid:    1   0   0      0.000
siesta: k-grid:    0   1   0      0.000
siesta: k-grid:    0   0   1      0.000

                     ====================================
                        Single-point calculation
                     ====================================

outcell: Unit cell vectors (Ang):
       15.646046    0.000000    0.000000
        0.000000   15.646046    0.000000
        0.000000    0.000000   15.646046

outcell: Cell vector modules (Ang)   :   15.646046   15.646046   15.646046
outcell: Cell angles (23,13,12) (deg):     90.0000     90.0000     90.0000
outcell: Cell volume (Ang**3)        :   3830.1327
New_DM. Step:     1
Initializing Density Matrix...
New grid distribution:   1
           1       1:   60    1:    8    1:    8
           2       1:   60    1:    8    9:   16
           3       1:   60    1:    8   17:   24
           4       1:   60    1:    8   25:   32
           5       1:   60    1:    8   33:   39
           6       1:   60    1:    8   40:   46
           7       1:   60    1:    8   47:   53
           8       1:   60    1:    8   54:   60
           9       1:   60    9:   16    1:    8
          10       1:   60    9:   16    9:   16
          11       1:   60    9:   16   17:   24
          12       1:   60    9:   16   25:   32
          13       1:   60    9:   16   33:   39
          14       1:   60    9:   16   40:   46
          15       1:   60    9:   16   47:   53
          16       1:   60    9:   16   54:   60
          17       1:   60   17:   24    1:    8
          18       1:   60   17:   24    9:   16
          19       1:   60   17:   24   17:   24
          20       1:   60   17:   24   25:   32
          21       1:   60   17:   24   33:   39
          22       1:   60   17:   24   40:   46
          23       1:   60   17:   24   47:   53
          24       1:   60   17:   24   54:   60
          25       1:   60   25:   32    1:    8
          26       1:   60   25:   32    9:   16
          27       1:   60   25:   32   17:   24
          28       1:   60   25:   32   25:   32
          29       1:   60   25:   32   33:   39
          30       1:   60   25:   32   40:   46
          31       1:   60   25:   32   47:   53
          32       1:   60   25:   32   54:   60
          33       1:   60   33:   39    1:    8
          34       1:   60   33:   39    9:   16
          35       1:   60   33:   39   17:   24
          36       1:   60   33:   39   25:   32
          37       1:   60   33:   39   33:   39
          38       1:   60   33:   39   40:   46
          39       1:   60   33:   39   47:   53
          40       1:   60   33:   39   54:   60
          41       1:   60   40:   46    1:    8
          42       1:   60   40:   46    9:   16
          43       1:   60   40:   46   17:   24
          44       1:   60   40:   46   25:   32
          45       1:   60   40:   46   33:   39
          46       1:   60   40:   46   40:   46
          47       1:   60   40:   46   47:   53
          48       1:   60   40:   46   54:   60
          49       1:   60   47:   53    1:    8
          50       1:   60   47:   53    9:   16
          51       1:   60   47:   53   17:   24
          52       1:   60   47:   53   25:   32
          53       1:   60   47:   53   33:   39
          54       1:   60   47:   53   40:   46
          55       1:   60   47:   53   47:   53
          56       1:   60   47:   53   54:   60
          57       1:   60   54:   60    1:    8
          58       1:   60   54:   60    9:   16
          59       1:   60   54:   60   17:   24
          60       1:   60   54:   60   25:   32
          61       1:   60   54:   60   33:   39
          62       1:   60   54:   60   40:   46
          63       1:   60   54:   60   47:   53
          64       1:   60   54:   60   54:   60

InitMesh: MESH =   120 x   120 x   120 =     1728000
InitMesh: (bp) =    60 x    60 x    60 =      216000
InitMesh: Mesh cutoff (required, used) =   150.000   162.575 Ry
ExtMesh (bp) on 0 =   112 x    60 x    60 =      403200
New grid distribution:   2
           1      46:   60    1:   15    1:   14
           2      30:   42    1:   16   15:   28
           3       1:   15    1:   15   14:   28
           4      31:   46    1:   17   29:   44
           5       1:   16    1:   16   29:   46
           6      44:   60   17:   29   15:   28
           7       1:   15    1:   17   47:   60
           8      16:   29    1:   15    1:   13
           9      30:   45    1:   15    1:   14
          10       1:   16   16:   29    1:   13
          11      43:   60    1:   16   15:   28
          12      16:   29    1:   15   14:   28
          13      48:   60   44:   60    1:   14
          14      17:   30   18:   30   47:   60
          15      31:   47    1:   16   45:   60
          16      16:   30    1:   17   47:   60
          17      17:   30    1:   16   29:   46
          18      48:   60    1:   16   45:   60
          19       1:   15   16:   29   14:   28
          20      47:   60   18:   30   29:   44
          21      14:   30   17:   30   29:   46
          22       1:   13   17:   30   29:   46
          23      46:   60   16:   29    1:   14
          24       1:   16   18:   30   47:   60
          25      47:   60    1:   17   29:   44
          26      30:   45   16:   29    1:   14
          27      14:   28   30:   46   16:   28
          28      30:   43   17:   29   15:   28
          29      31:   46   18:   30   29:   44
          30      16:   29   16:   29   14:   28
          31      44:   60   17:   30   45:   60
          32      31:   43   17:   30   45:   60
          33      29:   46   30:   43    1:   14
          34      16:   28   30:   45    1:   15
          35      29:   45   30:   45   15:   28
          36       1:   13   30:   46   16:   28
          37      28:   50   31:   46   29:   44
          38      51:   60   31:   46   29:   44
          39      14:   27   31:   44   44:   60
          40      47:   60   31:   44   45:   60
          41       1:   15   30:   45    1:   15
          42      47:   60   30:   43    1:   14
          43      46:   60   30:   45   15:   28
          44      29:   43   46:   60   15:   28
          45       1:   13   31:   44   29:   43
          46       1:   13   31:   44   44:   60
          47      28:   46   31:   44   45:   60
          48      48:   60   45:   60   45:   60
          49      29:   47   44:   60    1:   14
          50       1:   14   46:   60    1:   15
          51      44:   60   46:   60   15:   28
          52      16:   27   45:   60   29:   43
          53       1:   15   45:   60   29:   43
          54      14:   27   31:   44   29:   43
          55      28:   47   45:   60   45:   60
          56      16:   28   47:   60   16:   28
          57       1:   12   45:   60   44:   60
          58      15:   28   46:   60    1:   15
          59       1:   15   47:   60   16:   28
          60      44:   60   47:   60   29:   44
          61      28:   43   47:   60   29:   44
          62       1:   15    1:   15    1:   13
          63      13:   27   45:   60   44:   60
          64      17:   29   16:   29    1:   13
New grid distribution:   3
           1      31:   45   16:   30   46:   60
           2      31:   45   46:   60   46:   60
           3      31:   45   16:   30    1:   15
           4      31:   45   46:   60    1:   15
           5      31:   45    1:   15   31:   45
           6      46:   60   46:   60   46:   60
           7      46:   60   16:   30    1:   15
           8      46:   60   46:   60    1:   15
           9      46:   60   16:   30   46:   60
          10      46:   60   31:   45   46:   60
          11      31:   45    1:   15    1:   15
          12      31:   45   31:   45    1:   15
          13      46:   60    1:   15   31:   45
          14       1:   15   46:   60   46:   60
          15      46:   60    1:   15    1:   15
          16      46:   60   31:   45    1:   15
          17      31:   45    1:   15   46:   60
          18      16:   30   46:   60   46:   60
          19      31:   45   16:   30   16:   30
          20       1:   15   46:   60    1:   15
          21      31:   45   16:   30   31:   45
          22       1:   15   31:   45   46:   60
          23      31:   45    1:   15   16:   30
          24      16:   30   46:   60    1:   15
          25      46:   60    1:   15   46:   60
          26      16:   30   31:   45   46:   60
          27      46:   60   16:   30   16:   30
          28       1:   15   31:   45    1:   15
          29      46:   60   16:   30   31:   45
          30      46:   60    1:   15   16:   30
          31      31:   45   31:   45   46:   60
          32      16:   30   31:   45    1:   15
          33       1:   15   16:   30   31:   45
          34       1:   15   16:   30    1:   15
          35      31:   45   31:   45   16:   30
          36       1:   15   31:   45   31:   45
          37      16:   30   16:   30   31:   45
          38      31:   45   31:   45   31:   45
          39      16:   30   16:   30    1:   15
          40       1:   15   46:   60   16:   30
          41       1:   15    1:   15   31:   45
          42       1:   15    1:   15    1:   15
          43      46:   60   31:   45   16:   30
          44      16:   30   31:   45   31:   45
          45      16:   30    1:   15   31:   45
          46      46:   60   31:   45   31:   45
          47      16:   30    1:   15    1:   15
          48      16:   30   46:   60   16:   30
          49       1:   15   16:   30   46:   60
          50       1:   15   16:   30   16:   30
          51      31:   45   46:   60   16:   30
          52       1:   15   46:   60   31:   45
          53      16:   30   16:   30   46:   60
          54      31:   45   46:   60   31:   45
          55      16:   30   16:   30   16:   30
          56       1:   15   31:   45   16:   30
          57       1:   15    1:   15   46:   60
          58       1:   15    1:   15   16:   30
          59      46:   60   46:   60   16:   30
          60      16:   30   46:   60   31:   45
          61      16:   30    1:   15   46:   60
          62      46:   60   46:   60   31:   45
          63      16:   30    1:   15   16:   30
          64      16:   30   31:   45   16:   30
Setting up quadratic distribution...
ExtMesh (bp) on 0 =    67 x    67 x    66 =      296274
PhiOnMesh: Number of (b)points on node 0 =                 3150
PhiOnMesh: nlist on node 0 =               118532
QETSC: Last update           = Dec 15, 2016
QETSC: Number of ranks       =          64
QETSC: Number of slices      =          32
QETSC: Number of ranks/slice =           2
QETSC: Number of evals/slice =  16.00
QETSC: Number of req. evals  =         512
QETSC: Number of rows (all)  =        2944
QETSC: Number of rows (max)  =          46
QETSC: Number of rows (min)  =          46
QETSC: Density option        =           0
QETSC: Bin type given        =           7
QETSC: Inertia type          =           1
QETSC: Infinity type         =           2
QETSC: Write option          =           1
QETSC: Bin buffer given      =   0.10
QETSC: Diff thresh           =   0.05
QETSC: Number of nonzeros    =      808032
QETSC: Nonzero % (all)       =   9.32
QETSC: Nonzero % (max)       =  10.53
QETSC: Nonzero % (min)       =   8.26
 QETSC: Shifts, inertias         =
      -INF     0
    -2.300     0
    -2.226   128
    -2.152   128
    -2.077   128
    -2.003   128
    -1.929   128
    -1.855   128
    -1.781   128
    -1.706   128
    -1.632   128
    -1.558   128
    -1.484   128
    -1.410   128
    -1.335   132
    -1.261   256
    -1.187   256
    -1.113   328
    -1.039   384
    -0.965   499
    -0.890   512
    -0.816   512
    -0.742   512
    -0.668   512
    -0.594   512
    -0.519   512
    -0.445   512
    -0.371   512
    -0.297   512
    -0.223   512
    -0.148   512
    -0.074   512
     0.000   512
 QETSc: Custers,iter,crange,npcmax,trial 1 0.171773298204675566E-01 26 36
-2.2855090725806448E+00
-2.2704385080645157E+00
-2.2553679435483871E+00
-2.2402973790322580E+00
-2.2263860887096771E+00
-1.4096774193548387E+00
-1.3911290322580645E+00
-1.3725806451612903E+00
-1.3540322580645161E+00
-1.3205254942767950E+00
-1.3049687825182101E+00
-1.2894120707596253E+00
-1.2738553590010406E+00
-1.2618886576482831E+00
-1.1706093189964157E+00
-1.1530913978494624E+00
-1.1355734767025090E+00
-1.1180555555555554E+00
-1.1009792626728110E+00
-1.0837557603686634E+00
-1.0665322580645160E+00
-1.0493087557603686E+00
-1.0309677419354837E+00
-1.0141935483870967E+00
-9.9741935483870958E-01
-9.8064516129032242E-01
-9.6451612903225792E-01
-9.4168734491315120E-01
-9.1885856079404460E-01
-9.0173697270471453E-01
-8.9032258064516123E-01
 QETSC: Bins             =
                   -INF
-2.2999999999999998E+00
-2.2824949596774191E+00
-2.2674243951612900E+00
-2.2523538306451614E+00
-2.2375151209677417E+00
-2.0630443548387096E+00
-1.4059677419354839E+00
-1.3874193548387097E+00
-1.3688709677419355E+00
-1.3473309053069720E+00
-1.3174141519250779E+00
-1.3018574401664931E+00
-1.2863007284079084E+00
-1.2714620187304890E+00
-1.2436327899179096E+00
-1.1671057347670251E+00
-1.1495878136200717E+00
-1.1320698924731183E+00
-1.1146402969790066E+00
-1.0975345622119814E+00
-1.0803110599078338E+00
-1.0630875576036865E+00
-1.0456405529953916E+00
-1.0276129032258063E+00
-1.0108387096774194E+00
-9.9406451612903213E-01
-9.7741935483870956E-01
-9.5995037220843660E-01
-9.3712158808932988E-01
-9.1543424317617861E-01
-8.9945409429280387E-01
-8.9032258064516123E-01
QETSC: Started iter            1
QETSC: Bin type used         =           7
QETSC: Buffer used           =   0.0000000000000000E+00
QETSC: EPS interval          =      -INF,    -0.890
QETSC: Inertia type          =           1
SLEPc: EPSSolve time = 8 1.915e-06
SLEPc: EPSSolve time = 29 2.541e-06
SLEPc: EPSSolve time = 6 2.719e-06
SLEPc: EPSSolve time = 23 6.138e-06
SLEPc: EPSSolve time = 9 2.250e-06
SLEPc: EPSSolve time = 31 2.002e-06
SLEPc: EPSSolve time = 7 3.956e-06
SLEPc: EPSSolve time = 22 3.693e-06
SLEPc: EPSSolve time = 30 2.057e-06
SLEPc: EPSSolve time = 0 4.645e-06
SLEPc: EPSSolve time = 24 4.261e-06
SLEPc: EPSSolve time = 28 5.559e+00
SLEPc: EPSSolve time = 14 5.593e+00
SLEPc: EPSSolve time = 15 5.809e+00
SLEPc: EPSSolve time = 21 6.157e+00
SLEPc: EPSSolve time = 25 7.430e+00
SLEPc: EPSSolve time = 1 7.781e+00
SLEPc: EPSSolve time = 16 7.910e+00
SLEPc: EPSSolve time = 17 8.433e+00
SLEPc: EPSSolve time = 20 8.561e+00
SLEPc: EPSSolve time = 13 8.769e+00
SLEPc: EPSSolve time = 19 9.242e+00
SLEPc: EPSSolve time = 18 9.351e+00
SLEPc: EPSSolve time = 4 1.055e+01
SLEPc: EPSSolve time = 5 1.105e+01
SLEPc: EPSSolve time = 12 1.185e+01
SLEPc: EPSSolve time = 2 1.485e+01
SLEPc: EPSSolve time = 11 1.611e+01
SLEPc: EPSSolve time = 10 1.622e+01
SLEPc: EPSSolve time = 3 1.623e+01
SLEPc: EPSSolve time = 26 1.755e+01
SLEPc: EPSSolve time = 27 1.908e+01
 QETSC: Eigenvalues         =
-2.2942690628581626E+00
-2.2915884994216933E+00
-2.2896858110285825E+00
-2.2887702009403337E+00
-2.2871893855683290E+00
-2.2864442651962436E+00
-2.2861183249658006E+00
-2.2846526193598446E+00
-2.2842757447009454E+00
-2.2838849403153731E+00
-2.2832597376925072E+00
-2.2826202848733526E+00
-2.2817977344205036E+00
-2.2807723115576173E+00
-2.2799192958388526E+00
-2.2796736362043171E+00
-2.2794625646533988E+00
-2.2790387687023119E+00
-2.2787413898837841E+00
-2.2783042952985628E+00
-2.2777764625635619E+00
-2.2770836314175473E+00
-2.2762865963685006E+00
-2.2762324003593339E+00
-2.2753415859596355E+00
-2.2749900340988045E+00
-2.2743175385671592E+00
-2.2738690925699681E+00
-2.2736510144693449E+00
-2.2731601396778660E+00
-2.2722736355734843E+00
-2.2718626563783739E+00
-2.2716372485707597E+00
-2.2710654791677296E+00
-2.2707219991903540E+00
-2.2705307103435346E+00
-2.2702128741747534E+00
-2.2697960991554038E+00
-2.2694817321788641E+00
-2.2692816488944270E+00
-2.2688425602110227E+00
-2.2680687756515896E+00
-2.2679429933377726E+00
-2.2676212969875049E+00
-2.2672988907711797E+00
-2.2669586985697228E+00
-2.2668328576681636E+00
-2.2664664309728031E+00
-2.2656407982522060E+00
-2.2653840999840269E+00
-2.2649376208451129E+00
-2.2647348708304711E+00
-2.2644244984389967E+00
-2.2635433553230784E+00
-2.2628490004930755E+00
-2.2624087521833300E+00
-2.2623506366917074E+00
-2.2617181215804534E+00
-2.2612513005171855E+00
-2.2609308311998264E+00
-2.2604805977944316E+00
-2.2600941457329111E+00
-2.2597923696226023E+00
-2.2594101258063559E+00
-2.2591144678915849E+00
-2.2588591469354560E+00
-2.2583724585643230E+00
-2.2580516869622400E+00
-2.2580424795069938E+00
-2.2573448842310539E+00
-2.2569543881446159E+00
-2.2564376889813871E+00
-2.2559933633951261E+00
-2.2558656814599178E+00
-2.2553007672815890E+00
-2.2550969554612887E+00
-2.2547972045674811E+00
-2.2546543720997421E+00
-2.2542411457914335E+00
-2.2539680889007609E+00
-2.2535887348866313E+00
-2.2534487633497697E+00
-2.2526824243218306E+00
-2.2524086470276292E+00
-2.2520019439714867E+00
-2.2513253251960510E+00
-2.2508525752879867E+00
-2.2506949894694919E+00
-2.2503018746960675E+00
-2.2497046828205400E+00
-2.2492648373470465E+00
-2.2491269551953743E+00
-2.2488743932046766E+00
-2.2483663850273099E+00
-2.2480622530948624E+00
-2.2477776116546493E+00
-2.2474912365676256E+00
-2.2472005157386827E+00
-2.2464806025749597E+00
-2.2458533768716458E+00
-2.2455471228788264E+00
-2.2453992139843972E+00
-2.2450032156242807E+00
-2.2448901664043510E+00
-2.2446090978846902E+00
-2.2442362860927099E+00
-2.2438517150039696E+00
-2.2433067158884046E+00
-2.2432047274368609E+00
-2.2428937088301861E+00
-2.2418899504623226E+00
-2.2414957006598653E+00
-2.2413577556944180E+00
-2.2408570790729425E+00
-2.2400244344608158E+00
-2.2399512944146287E+00
-2.2396231875987178E+00
-2.2391501246594037E+00
-2.2389536954495526E+00
-2.2388145908805175E+00
-2.2381296113895481E+00
-2.2375063830523843E+00
-2.2367386846868396E+00
-2.2364835818605782E+00
-2.2362797727998407E+00
-2.2356807818379063E+00
-2.2352029993864839E+00
-2.2340754124407649E+00
-1.3450505335226504E+00
-1.3381209246633068E+00
-1.3370903547836885E+00
-1.3360518880024743E+00
-1.3350334222278890E+00
-1.3338060640958207E+00
-1.3328997541346195E+00
-1.3319546925452799E+00
-1.3315511895013432E+00
-1.3310438176407771E+00
-1.3304846795488943E+00
-1.3294713142910448E+00
-1.3282467512102438E+00
-1.3266832116167799E+00
-1.3260468933902494E+00
-1.3256506200546996E+00
-1.3251920441296343E+00
-1.3247084077709070E+00
-1.3237405619322666E+00
-1.3232518508933673E+00
-1.3228810768706063E+00
-1.3220476689082696E+00
-1.3212147554786511E+00
-1.3207609129391862E+00
-1.3203078833749178E+00
-1.3199379835451739E+00
-1.3188596511595823E+00
-1.3187028376627372E+00
-1.3182790808711480E+00
-1.3180429069324811E+00
-1.3175154088694108E+00
-1.3173043428204658E+00
-1.3166322419837608E+00
-1.3164656015844840E+00
-1.3158598348646440E+00
-1.3152601846523901E+00
-1.3150780778937656E+00
-1.3144554512492774E+00
-1.3139919958791393E+00
-1.3139353664075608E+00
-1.3127493790714013E+00
-1.3121169680597398E+00
-1.3116942979710704E+00
-1.3111849903568600E+00
-1.3110280061346780E+00
-1.3106940727942271E+00
-1.3100514232746414E+00
-1.3096411272105375E+00
-1.3094479442730869E+00
-1.3088886777847077E+00
-1.3083800370368133E+00
-1.3075938614968248E+00
-1.3070920151012653E+00
-1.3066818437381893E+00
-1.3063854684421048E+00
-1.3060752949041867E+00
-1.3057625173019951E+00
-1.3053728047256901E+00
-1.3049288459337804E+00
-1.3046561464803563E+00
-1.3042130565403458E+00
-1.3037407642877803E+00
-1.3035691115942600E+00
-1.3031892932182803E+00
-1.3025750321560776E+00
-1.3022453876933993E+00
-1.3018798362270996E+00
-1.3016915578298822E+00
-1.3013637264944447E+00
-1.3006709358341182E+00
-1.3003880762173916E+00
-1.3001037291749087E+00
-1.2997070819472138E+00
-1.2993927770468814E+00
-1.2992060368967999E+00
-1.2982829311828252E+00
-1.2979832791193922E+00
-1.2977602033992093E+00
-1.2969398551547600E+00
-1.2964137894023249E+00
-1.2962394265285573E+00
-1.2957595940511422E+00
-1.2952468633043712E+00
-1.2949768662438226E+00
-1.2946349511009660E+00
-1.2940441335543378E+00
-1.2936347013269160E+00
-1.2929992470000737E+00
-1.2920852434482264E+00
-1.2918548634989548E+00
-1.2913881751297198E+00
-1.2909994718850506E+00
-1.2908774403005805E+00
-1.2902682431014860E+00
-1.2891482198809843E+00
-1.2888647408030502E+00
-1.2887310304517672E+00
-1.2881288324929041E+00
-1.2880577514019911E+00
-1.2875425990727301E+00
-1.2873119438777236E+00
-1.2869349338843186E+00
-1.2867902454403497E+00
-1.2865547820082226E+00
-1.2857729645199496E+00
-1.2856188472840038E+00
-1.2851178957358178E+00
-1.2848348190046723E+00
-1.2839115757136323E+00
-1.2835454684698879E+00
-1.2833280494735901E+00
-1.2826621438971673E+00
-1.2824147972135891E+00
-1.2816399411388157E+00
-1.2803896803089845E+00
-1.2800921776228404E+00
-1.2795124726291418E+00
-1.2787647700141789E+00
-1.2782907389652907E+00
-1.2774153946482718E+00
-1.2767004799593562E+00
-1.2754305415791976E+00
-1.2748468938931761E+00
-1.2734903064618939E+00
-1.2733844790737336E+00
-1.2722721316023951E+00
-1.2712019575783944E+00
-1.2644938901098524E+00
-1.1784272869549237E+00
-1.1776383245095248E+00
-1.1740926806653691E+00
-1.1698048211617531E+00
-1.1672458934899810E+00
-1.1653847234684287E+00
-1.1641847839711352E+00
-1.1633340971434893E+00
-1.1629666760519470E+00
-1.1613445801332545E+00
-1.1600331059754014E+00
-1.1580179666722326E+00
-1.1574016339007163E+00
-1.1563388662491694E+00
-1.1555693205293245E+00
-1.1552852737849870E+00
-1.1537522761729175E+00
-1.1534764755035301E+00
-1.1528598222411359E+00
-1.1516568741354962E+00
-1.1512703030790119E+00
-1.1494768408725782E+00
-1.1491088700388816E+00
-1.1482881212870837E+00
-1.1480247057249744E+00
-1.1468993465594604E+00
-1.1456484785112371E+00
-1.1454536984774100E+00
-1.1447770575952745E+00
-1.1438270730909958E+00
-1.1425061359296660E+00
-1.1417976047214293E+00
-1.1415431409988577E+00
-1.1407133896082566E+00
-1.1398027665834762E+00
-1.1387948918303661E+00
-1.1384787682955160E+00
-1.1379583010764942E+00
-1.1371129387579875E+00
-1.1361588626618342E+00
-1.1357314647054000E+00
-1.1348572099419274E+00
-1.1345399167232699E+00
-1.1332125113982308E+00
-1.1327929886648334E+00
-1.1318497997709551E+00
-1.1302155198534614E+00
-1.1301689638552646E+00
-1.1289620692808240E+00
-1.1286611291804984E+00
-1.1274305231654183E+00
-1.1265893454450633E+00
-1.1260793904912771E+00
-1.1257179424588681E+00
-1.1250174028749540E+00
-1.1244069201155351E+00
-1.1232372158726678E+00
-1.1218902469425702E+00
-1.1214113806925585E+00
-1.1212947308553540E+00
-1.1202118833597445E+00
-1.1200313229924070E+00
-1.1196359748230957E+00
-1.1189973025562188E+00
-1.1181660783302323E+00
-1.1176159049677932E+00
-1.1170048611135377E+00
-1.1161809155452327E+00
-1.1146373907436191E+00
-1.1144111515026556E+00
-1.1140277445459281E+00
-1.1132452651050515E+00
-1.1121003170969082E+00
-1.1111048544958018E+00
-1.1106267222044024E+00
-1.1098070607260129E+00
-1.1097158141993402E+00
-1.1091794626350757E+00
-1.1078059701545244E+00
-1.1074195999386542E+00
-1.1072329891258428E+00
-1.1062618352113118E+00
-1.1055505725683523E+00
-1.1047230116440407E+00
-1.1034231988937151E+00
-1.1025304616352785E+00
-1.1020260424171597E+00
-1.1015976587626484E+00
-1.1007940866876298E+00
-1.0995097035908450E+00
-1.0991835859242454E+00
-1.0985879425466527E+00
-1.0981983685435919E+00
-1.0977810836406319E+00
-1.0974087430165806E+00
-1.0962453812202630E+00
-1.0957468835687321E+00
-1.0952458655074901E+00
-1.0943235071564195E+00
-1.0941059170431331E+00
-1.0935136387894675E+00
-1.0925585575532262E+00
-1.0917752813613864E+00
-1.0912360709329914E+00
-1.0906489878096735E+00
-1.0894866171964730E+00
-1.0885483069395705E+00
-1.0879472073113190E+00
-1.0876067328216790E+00
-1.0861417860089617E+00
-1.0857405573882217E+00
-1.0847778790059626E+00
-1.0841163720768752E+00
-1.0836849793107475E+00
-1.0827063994088806E+00
-1.0822887166209825E+00
-1.0812574180679000E+00
-1.0805119165141173E+00
-1.0787735010717678E+00
-1.0785606974411051E+00
-1.0778306568645060E+00
-1.0756641068126473E+00
-1.0753383127048441E+00
-1.0743863805314771E+00
-1.0723485759763811E+00
-1.0716097469671624E+00
-1.0702154541833018E+00
-1.0674710429940042E+00
-1.0014987829967990E+00
-9.9698070433330432E-01
-9.9593930943638775E-01
-9.9563810528446672E-01
-9.9549740503740969E-01
-9.9492121220411012E-01
-9.9456594621644145E-01
-9.9384977538225117E-01
-9.9371612840044565E-01
-9.9307113621170662E-01
-9.9274396623830852E-01
-9.9188872118006099E-01
-9.9148102145569539E-01
-9.9131078395582639E-01
-9.9119701700186280E-01
-9.9084986275857723E-01
-9.9063126996612005E-01
-9.9040824396314053E-01
-9.8954799750229316E-01
-9.8938495407099103E-01
-9.8918529576447689E-01
-9.8889927176401893E-01
-9.8869136215580644E-01
-9.8851111983038642E-01
-9.8814240440893042E-01
-9.8748111052832133E-01
-9.8736243647420485E-01
-9.8690438945059755E-01
-9.8679187518693057E-01
-9.8661093528032884E-01
-9.8640806834612571E-01
-9.8610786923796578E-01
-9.8581315999547015E-01
-9.8568632169439718E-01
-9.8505007715771531E-01
-9.8484523321122730E-01
-9.8473350540960725E-01
-9.8456098065390574E-01
-9.8413094914849675E-01
-9.8405769207820115E-01
-9.8378674586163317E-01
-9.8329672596425333E-01
-9.8309463160978283E-01
-9.8287039335728299E-01
-9.8251811441446413E-01
-9.8221653202282333E-01
-9.8192534392689079E-01
-9.8166375999686162E-01
-9.8142985968730945E-01
-9.8125829758512551E-01
-9.8086870579056307E-01
-9.8058224349113710E-01
-9.8021545657867415E-01
-9.8009136182470025E-01
-9.7975448089552175E-01
-9.7964447878273353E-01
-9.7944546442772906E-01
-9.7937015026840080E-01
-9.7923459432821414E-01
-9.7900834974639039E-01
-9.7881916776915190E-01
-9.7878957598054261E-01
-9.7841218981588596E-01
-9.7831233129587014E-01
-9.7775248268453785E-01
-9.7770841346243476E-01
-9.7749529767777832E-01
-9.7729131641567046E-01
-9.7689177650888503E-01
-9.7675780595031492E-01
-9.7642571515172794E-01
-9.7618113222167968E-01
-9.7601429259067307E-01
-9.7583413392284801E-01
-9.7571706854694196E-01
-9.7526173613521150E-01
-9.7513360069748256E-01
-9.7468181928853592E-01
-9.7452268099837480E-01
-9.7434078460634466E-01
-9.7402640129373408E-01
-9.7377708075107983E-01
-9.7364979904066395E-01
-9.7340386033277260E-01
-9.7309993977074760E-01
-9.7281290373751594E-01
-9.7256170635248573E-01
-9.7230522163541189E-01
-9.7188994630040459E-01
-9.7159026550932082E-01
-9.7142060392885077E-01
-9.7101359907716545E-01
-9.7069734859338597E-01
-9.7063523487938452E-01
-9.7049632109136885E-01
-9.7016040254762015E-01
-9.6995239438625103E-01
-9.6964158235185849E-01
-9.6940602660933284E-01
-9.6887427227921130E-01
-9.6858910093293793E-01
-9.6854869727488546E-01
-9.6811394897073932E-01
-9.6771494972082950E-01
-9.6750531361940173E-01
-9.6732721792637055E-01
-9.6702157790961130E-01
-9.6692503860433121E-01
-9.6633351329084927E-01
-9.6619091981997318E-01
-9.6603080955246590E-01
-9.6567596547507328E-01
-9.6556349041604494E-01
-9.6554843064130869E-01
-9.6477412409792573E-01
-9.6399245508776232E-01
-9.6361632463584468E-01
-9.6334023884483666E-01
-9.6239426431148067E-01
-9.6202739810275051E-01
-9.6171025066074878E-01
-9.6160819316098145E-01
-9.6096517027150252E-01
-9.6071538112038790E-01
-9.6040063508262807E-01
-9.6006291333214810E-01
-9.5888179154990039E-01
-9.5630094115912123E-01
QETSC: Iter time (min)       =     1  28.97
QETSC: Iter time (max)       =     1  28.98
QETSC: Iter time (avg)       =     1  28.97
QETSC: Num. of conv. evals   =     1         512
QETSC: Eigenvalue (1)        =     1  -2.2942690628581626E+00
QETSC: Eigenvalue (nocc)     =     1  -9.5630094115912123E-01
QETSC: Max differrence       =     1   2.2942690628581626E+00
QETSC: Safe iteration        =     1      F
QETSC: Finished iter         =           1
 *****************************************************************
QETSC: SCF iter time=  29.100

siesta: Program's energy decomposition (eV):
siesta: Ebs     =    -19717.145141
siesta: Eions   =    104429.373288
siesta: Ena     =     25111.247127
siesta: Ekin    =     39771.655038
siesta: Enl     =     -5671.889728
siesta: DEna    =         0.000020
siesta: DUscf   =         0.000000
siesta: DUext   =         0.000000
siesta: Exc     =    -14272.759880
siesta: eta*DQ  =         0.000000
siesta: Emadel  =         0.000000
siesta: Emeta   =         0.000000
siesta: Emolmec =         0.000000
siesta: Ekinion =         0.000000
siesta: Eharris =    -60791.143089
siesta: Etot    =    -59491.120711
siesta: FreeEng =    -59491.120711
timer: Routine,Calls,Time,% =    IterSCF     1      30.920  59.23
 QETSC: Bins             =
                   -INF
-2.2999999999999998E+00
-2.2258064516129030E+00
-2.1516129032258062E+00
-2.0774193548387094E+00
-2.0032258064516126E+00
-1.9290322580645161E+00
-1.8548387096774193E+00
-1.7806451612903225E+00
-1.7064516129032257E+00
-1.6322580645161289E+00
-1.5580645161290321E+00
-1.4838709677419353E+00
-1.4096774193548387E+00
-1.3354838709677419E+00
-1.2612903225806451E+00
-1.1870967741935483E+00
-1.1129032258064515E+00
-1.0387096774193547E+00
-9.6451612903225792E-01
-8.9032258064516123E-01
-8.1612903225806444E-01
-7.4193548387096764E-01
-6.6774193548387095E-01
-5.9354838709677415E-01
-5.1935483870967736E-01
-4.4516129032258056E-01
-3.7096774193548382E-01
-2.9677419354838708E-01
-2.2258064516129028E-01
-1.4838709677419351E-01
-7.4193548387096742E-02
 2.7755575615628914E-17
QETSC: Started iter            2
QETSC: Bin type used         =           0
QETSC: Buffer used           =   2.2942690628581626E+00
QETSC: EPS interval          =      -INF,     0.000
QETSC: Inertia type          =           1
SLEPc: EPSSolve time = 3 2.138e-06
SLEPc: EPSSolve time = 18 1.819e-06
SLEPc: EPSSolve time = 14 1.790e-06
SLEPc: EPSSolve time = 6 4.419e-06
SLEPc: EPSSolve time = 17 2.355e-06
SLEPc: EPSSolve time = 8 3.466e-06
SLEPc: EPSSolve time = 5 3.899e-06
SLEPc: EPSSolve time = 19 2.375e-06
SLEPc: EPSSolve time = 15 3.091e-06
SLEPc: EPSSolve time = 0 4.379e-06
SLEPc: EPSSolve time = 16 1.775e-06
SLEPc: EPSSolve time = 2 1.826e-06
SLEPc: EPSSolve time = 4 3.203e-06
SLEPc: EPSSolve time = 7 1.817e-06
SLEPc: EPSSolve time = 1 1.845e-06
SLEPc: EPSSolve time = 9 5.595e+00
SLEPc: EPSSolve time = 13 6.426e+00
SLEPc: EPSSolve time = 31 6.526e+00
SLEPc: EPSSolve time = 20 7.739e+00
SLEPc: EPSSolve time = 24 7.821e+00
SLEPc: EPSSolve time = 25 8.246e+00
SLEPc: EPSSolve time = 10 9.913e+00
SLEPc: EPSSolve time = 23 1.059e+01
SLEPc: EPSSolve time = 21 1.637e+01
SLEPc: EPSSolve time = 11 1.640e+01
SLEPc: EPSSolve time = 26 1.646e+01
SLEPc: EPSSolve time = 28 1.651e+01
SLEPc: EPSSolve time = 27 1.670e+01
SLEPc: EPSSolve time = 12 1.702e+01
SLEPc: EPSSolve time = 22 1.703e+01
SLEPc: EPSSolve time = 29 1.900e+01
SLEPc: EPSSolve time = 30 1.929e+01
 QETSC: Eigenvalues         =
-1.6575748077203056E+00
-1.6412756903149910E+00
-1.6281966320129135E+00
-1.6151475121826229E+00
-1.6084039607450760E+00
-1.6034305631328150E+00
-1.5989905268127576E+00
-1.5966625358693605E+00
-1.5952286717507107E+00
-1.5873307760575115E+00
-1.5819270249046316E+00
-1.5799648062243921E+00
-1.5738984025060194E+00
-1.5697039950578549E+00
-1.5670832583547154E+00
-1.5666224246728810E+00
-1.5648000501119799E+00
-1.5595168211705399E+00
-1.5591315533765462E+00
-1.5564743480385697E+00
-1.5549190273309939E+00
-1.5509243304127232E+00
-1.5500057674878926E+00
-1.5494900224308230E+00
-1.5481087096819093E+00
-1.5422861211287826E+00
-1.5418101256634908E+00
-1.5411334375126220E+00
-1.5371296074556862E+00
-1.5354054601645499E+00
-1.5351523262517122E+00
-1.5336779875224567E+00
-1.5329312013720642E+00
-1.5320181519731226E+00
-1.5306575617199989E+00
-1.5297131691294632E+00
-1.5279654961485962E+00
-1.5274400781463886E+00
-1.5229012690143491E+00
-1.5202341509162167E+00
-1.5180393892427513E+00
-1.5170618842622687E+00
-1.5167194052077568E+00
-1.5144178401292216E+00
-1.5119129925590393E+00
-1.5108612652798830E+00
-1.5106774045731362E+00
-1.5090991055649501E+00
-1.5051579871749847E+00
-1.5042932061122665E+00
-1.5021926076198766E+00
-1.5015262297365535E+00
-1.4988497180024716E+00
-1.4969569241785639E+00
-1.4966067798883742E+00
-1.4934746132270293E+00
-1.4917098054850852E+00
-1.4894793266912716E+00
-1.4884890259199803E+00
-1.4882844286736421E+00
-1.4850099009527125E+00
-1.4828681900070837E+00
-1.4818171673675502E+00
-1.4806936192647757E+00
-1.4800820719197565E+00
-1.4787601585199128E+00
-1.4770995702872194E+00
-1.4741875403553168E+00
-1.4736665474493802E+00
-1.4717809997795068E+00
-1.4709973926621138E+00
-1.4700849301076155E+00
-1.4695167819403079E+00
-1.4679613029493217E+00
-1.4671197978830863E+00
-1.4662350330143434E+00
-1.4653115389401801E+00
-1.4646035160644921E+00
-1.4624801839383317E+00
-1.4621189149662541E+00
-1.4607465449429395E+00
-1.4589629731495393E+00
-1.4578555778611735E+00
-1.4555919845642129E+00
-1.4543232636666952E+00
-1.4530523486530622E+00
-1.4524650029040718E+00
-1.4520293807480587E+00
-1.4505959581840742E+00
-1.4482575756142861E+00
-1.4477601765669181E+00
-1.4470245522059757E+00
-1.4445991016236035E+00
-1.4430587150333507E+00
-1.4398300010294500E+00
-1.4382529534124877E+00
-1.4368804326545219E+00
-1.4360202252524079E+00
-1.4352960975086324E+00
-1.4343225300459530E+00
-1.4300328225979035E+00
-1.4289180485380235E+00
-1.4260957631852427E+00
-1.4255320667071361E+00
-1.4241880391574191E+00
-1.4213849789376498E+00
-1.4189040170458982E+00
-1.4180205258140557E+00
-1.4173348076783678E+00
-1.4155184899641855E+00
-1.4131683261550878E+00
-1.4127529459653179E+00
-1.4056366941546243E+00
-1.4052997133709773E+00
-1.4015161348411467E+00
-1.4011798319017386E+00
-1.3997661466062421E+00
-1.3992159562011981E+00
-1.3957918741559723E+00
-1.3917041738728257E+00
-1.3893521921774230E+00
-1.3862389907018025E+00
-1.3761768197401545E+00
-1.3692590889346057E+00
-1.3675261924482074E+00
-1.3659885837254784E+00
-1.3655349726588601E+00
-1.3413533687008801E+00
-8.7013121338134125E-01
-8.6920949230341960E-01
-8.5500283603206950E-01
-8.4972218820507639E-01
-8.4244266071520224E-01
-8.3769415542767323E-01
-8.3491365972966669E-01
-8.2384440051314034E-01
-8.2343902644844313E-01
-8.1953884937941490E-01
-8.1625341257614659E-01
-8.1487468551294606E-01
-8.1105916259033051E-01
-8.1027166744821533E-01
-8.0850345332987872E-01
-8.0620646917042982E-01
-8.0373896177188042E-01
-8.0176988545649186E-01
-8.0018788384862227E-01
-7.9822181053341534E-01
-7.9732235074914326E-01
-7.9638978426458085E-01
-7.9432765953795192E-01
-7.9232510001151879E-01
-7.9132220614241711E-01
-7.8961737373065721E-01
-7.8740898296385786E-01
-7.8518098366059730E-01
-7.8421082904223327E-01
-7.8081221169462001E-01
-7.7774412739945953E-01
-7.7705752638582237E-01
-7.7509269610390608E-01
-7.7398859172107581E-01
-7.7270198662984013E-01
-7.7111365953237376E-01
-7.6985855873390363E-01
-7.6801052462327468E-01
-7.6680975696940568E-01
-7.6347769756140316E-01
-7.6231150135394654E-01
-7.6106873122199237E-01
-7.5945381004411772E-01
-7.5842232370404983E-01
-7.5683220176337029E-01
-7.5480698985533190E-01
-7.5347431988042279E-01
-7.5035242097037602E-01
-7.4955391518109171E-01
-7.4847178744409626E-01
-7.4295042191008243E-01
-7.4194620749918916E-01
-7.4080004343462269E-01
-7.3886139623402991E-01
-7.3707044668064203E-01
-7.3620787482946615E-01
-7.3586550605828593E-01
-7.3420962012562285E-01
-7.3331559339391617E-01
-7.3295850849722610E-01
-7.3194094133984589E-01
-7.3079485686419809E-01
-7.2840551061355752E-01
-7.2776389516075457E-01
-7.2684318956288840E-01
-7.2530254913950520E-01
-7.2316212170271232E-01
-7.2173705918062281E-01
-7.2062018755242907E-01
-7.2038467705726483E-01
-7.1943412446368782E-01
-7.1879930683059978E-01
-7.1721097250998045E-01
-7.1518661295412500E-01
-7.1355141413565071E-01
-7.1327155599694214E-01
-7.1161526047278856E-01
-7.1116808374036589E-01
-7.1008047371409622E-01
-7.0783851953422594E-01
-7.0612340889768010E-01
-7.0461123822825944E-01
-7.0357653784320795E-01
-7.0111660243272500E-01
-7.0068566480357219E-01
-6.9908787167086006E-01
-6.9743725718711058E-01
-6.9628665814367252E-01
-6.9540329968467096E-01
-6.9350260417778353E-01
-6.9204402617345084E-01
-6.9018081695040623E-01
-6.8823721120795212E-01
-6.8661086739376187E-01
-6.8465180498230171E-01
-6.8372400004943312E-01
-6.8272953792069047E-01
-6.8150776344074449E-01
-6.8057594693765289E-01
-6.7930105432653931E-01
-6.7885999624217908E-01
-6.7501883106340432E-01
-6.7387186075565852E-01
-6.7340762349553274E-01
-6.7047583962433122E-01
-6.6854569367117878E-01
-6.6750810395531412E-01
-6.6601869144496406E-01
-6.6369988891722465E-01
-6.6245746783980353E-01
-6.6110960655799356E-01
-6.5841840845827182E-01
-6.5807970451853015E-01
-6.5589437005904261E-01
-6.5383619455138553E-01
-6.5356684725824532E-01
-6.5119042783945225E-01
-6.4963800839269881E-01
-6.4761052633716687E-01
-6.4572188776918382E-01
-6.4326068911065748E-01
-6.4180820555519646E-01
-6.4015090490166104E-01
-6.3947865025059336E-01
-6.3307538711149391E-01
-6.1687607910757636E-01
-6.0715487743455809E-01
-5.9004334376541467E-01
-5.6630979114804414E-01
-5.2291724082472657E-01
-5.1152383751421582E-01
-5.0032936891624658E-01
-4.9486498463487022E-01
-4.8447452947404901E-01
-4.7620236376295372E-01
-4.7433718586183626E-01
-4.7373559832252676E-01
-4.6840444019848249E-01
-4.6706927175399521E-01
-4.6500908727884233E-01
-4.5738429397365660E-01
-4.5511791987384809E-01
-4.5140557915017626E-01
-4.4887008898080105E-01
-4.4790476863858375E-01
-4.4543172917007107E-01
-4.4247902554143731E-01
-4.3837298742606295E-01
-4.3684265635640879E-01
-4.3662179586354355E-01
-4.3238530804646802E-01
-4.2790720096863061E-01
-4.2660227336804540E-01
-4.2456477338679544E-01
-4.2266656579141315E-01
-4.1952339507523295E-01
-4.1622449768394643E-01
-4.1613311974580602E-01
-4.1343142483074879E-01
-4.1137592448001664E-01
-4.0767311844237053E-01
-4.0632612126006334E-01
-4.0493846277284173E-01
-4.0329710701323096E-01
-4.0186234233219242E-01
-4.0063373522820128E-01
-3.9767245034899235E-01
-3.9559887250009090E-01
-3.9282139217075146E-01
-3.9016360480694412E-01
-3.8893536009949570E-01
-3.8752115047734426E-01
-3.8524381565065474E-01
-3.8360436385055718E-01
-3.8031598916585913E-01
-3.7656115499895182E-01
-3.7429870888606825E-01
-3.7076580863725894E-01
-3.6783055393591874E-01
-3.6628744865859925E-01
-3.6455655722204600E-01
-3.6378515080878698E-01
-3.6245563684049259E-01
-3.6032280999880162E-01
-3.5835026019025540E-01
-3.5747469268522691E-01
-3.5662702184347805E-01
-3.5377460518295034E-01
-3.5191876010663958E-01
-3.5032702070250338E-01
-3.4808628032449840E-01
-3.4631908477872664E-01
-3.4408878616161465E-01
-3.4317719907570565E-01
-3.4089467581568922E-01
-3.4034193613502511E-01
-3.3753140211661908E-01
-3.3533241762990856E-01
-3.3175538359720913E-01
-3.3090959148289234E-01
-3.2930008427873492E-01
-3.2684634562167764E-01
-3.2553103213050172E-01
-3.2352519789363060E-01
-3.2060029255321809E-01
-3.1867023271204892E-01
-3.1823762193779126E-01
-3.1664827785498834E-01
-3.1549054935787624E-01
-3.1219721875057960E-01
-3.1094929503946367E-01
-3.0969168916941880E-01
-3.0783045254130253E-01
-3.0548942735378470E-01
-3.0346415821133560E-01
-2.9987794048531841E-01
-2.9841109832970297E-01
-2.9661848351659265E-01
-2.9373203588282099E-01
-2.9230976177010376E-01
-2.9072093253877179E-01
-2.8936420823707792E-01
-2.8652822407653566E-01
-2.8425160240369285E-01
-2.8271535030777400E-01
-2.8182795718751141E-01
-2.7862983397500779E-01
-2.7711888508693677E-01
-2.7660229748759813E-01
-2.7413422496941525E-01
-2.7275554028787197E-01
-2.7097785707400734E-01
-2.6716724863634866E-01
-2.6703633169743335E-01
-2.6685751915871109E-01
-2.6368250509851032E-01
-2.6206607742430765E-01
-2.5999406770800398E-01
-2.5944803296546409E-01
-2.5725111461868833E-01
-2.5226295436315416E-01
-2.5168337583502548E-01
-2.4797911144745960E-01
-2.4711353722541812E-01
-2.4672192246922403E-01
-2.4528254695221685E-01
-2.4425792323452916E-01
-2.4101436448273988E-01
-2.3943921805916035E-01
-2.3794215638559929E-01
-2.3675656045863969E-01
-2.3499652995034515E-01
-2.3111732993078016E-01
-2.3009894894625652E-01
-2.2900826347143294E-01
-2.2782782373281119E-01
-2.2464143130619224E-01
-2.2335732358343768E-01
-2.2286911493717174E-01
-2.2212696358784526E-01
-2.2010615994945951E-01
-2.1858587316389724E-01
-2.1809511330337064E-01
-2.1770875010596583E-01
-2.1535781976723312E-01
-2.1440096534161096E-01
-2.1237664333822606E-01
-2.1146999741566469E-01
-2.1072180143884958E-01
-2.0982989380793637E-01
-2.0843643117690322E-01
-2.0797099249311773E-01
-2.0499930836246746E-01
-2.0264298071209499E-01
-2.0089894734053518E-01
-2.0023528360578374E-01
-1.9961306382936958E-01
-1.9824323294001614E-01
-1.9620748352223130E-01
-1.9554337330444968E-01
-1.9406823394447037E-01
-1.9200443443529655E-01
-1.9051902591513123E-01
-1.8939794134883961E-01
-1.8679114498699206E-01
-1.8620952003357133E-01
-1.8360787210090057E-01
-1.8217305029152259E-01
-1.8163532276464364E-01
-1.8064572620724287E-01
-1.7862763631243408E-01
-1.7736939258938894E-01
-1.7514284638447863E-01
-1.7446477149610726E-01
-1.7306235209689849E-01
-1.7272836121113555E-01
-1.7057085979481015E-01
-1.6914332184277228E-01
-1.6831641018378302E-01
-1.6717862017192242E-01
-1.6693930020407699E-01
-1.6514675783352412E-01
-1.6368970404396380E-01
-1.6297159519831844E-01
-1.6159337206263827E-01
-1.6029554429912660E-01
-1.5936438659962229E-01
-1.5786783866895010E-01
[...]
Using Petsc Development GIT revision: v3.7.3-1204-g68f0caa  GIT Date: 2016-08-19 16:41:02 -0500

                         Max       Max/Min        Avg      Total 
Time (sec):           3.658e+02      1.00000   3.658e+02
Objects:              2.138e+03      1.23157   1.954e+03
Flops:                7.847e+09   5960.92391   3.762e+09  2.408e+11
Flops/sec:            2.145e+07   5960.92391   1.028e+07  6.582e+08
MPI Messages:         2.146e+04      2.86965   1.574e+04  1.007e+06
MPI Message Lengths:  1.450e+08      3.44643   6.002e+03  6.046e+09
MPI Reductions:       1.584e+04      1.59589

Flop counting convention: 1 flop = 1 real number operation of type (multiply/divide/add/subtract)
                            e.g., VecAXPY() for real vectors of length N --> 2N flops
                            and VecAXPY() for complex vectors of length N --> 8N flops

Summary of Stages:   ----- Time ------  ----- Flops -----  --- Messages ---  -- Message Lengths --  -- Reductions --
                        Avg     %Total     Avg     %Total   counts   %Total     Avg         %Total   counts   %Total 
 0:      Main Stage: 2.0044e-04   0.0%  0.0000e+00   0.0%  0.000e+00   0.0%  0.000e+00        0.0%  0.000e+00   0.0% 
 1:     siesta_init: 4.1618e+00   1.1%  0.0000e+00   0.0%  0.000e+00   0.0%  0.000e+00        0.0%  0.000e+00   0.0% 
 2:   siesta_forces: 1.9149e+01   5.2%  0.0000e+00   0.0%  0.000e+00   0.0%  0.000e+00        0.0%  0.000e+00   0.0% 
 3:    siesta_solve: 5.2485e-03   0.0%  0.0000e+00   0.0%  0.000e+00   0.0%  0.000e+00        0.0%  0.000e+00   0.0% 
 4:    siesta2qetsc: 2.1528e-01   0.1%  0.0000e+00   0.0%  1.415e+04   1.4%  9.504e-01        0.0%  6.900e+01   0.7% 
 5: qetsc_setup_eps: 7.3547e+00   2.0%  1.5571e+08   0.1%  1.425e+05  14.1%  2.147e+03       35.8%  1.880e+02   1.9% 
 6: qetsc_solve_eps: 2.8655e+02  78.3%  2.4062e+11  99.9%  3.257e+05  32.3%  3.686e+03       61.4%  4.363e+03  43.9% 
 7:   qetsc_eigvals: 4.6035e-02   0.0%  0.0000e+00   0.0%  0.000e+00   0.0%  0.000e+00        0.0%  0.000e+00   0.0% 
 8:   qetsc_density: 1.6768e+01   4.6%  0.0000e+00   0.0%  5.250e+05  52.1%  1.679e+02        2.8%  9.180e+03  92.4% 
10:     siesta_misc: 3.0353e+01   8.3%  0.0000e+00   0.0%  0.000e+00   0.0%  0.000e+00        0.0%  0.000e+00   0.0% 
11:     siesta_move: 1.2181e-01   0.0%  0.0000e+00   0.0%  0.000e+00   0.0%  0.000e+00        0.0%  0.000e+00   0.0% 
12: siesta_analysis: 2.3711e-02   0.0%  0.0000e+00   0.0%  0.000e+00   0.0%  0.000e+00        0.0%  0.000e+00   0.0% 
13:     qetsc_clean: 3.7162e-06   0.0%  0.0000e+00   0.0%  0.000e+00   0.0%  0.000e+00        0.0%  0.000e+00   0.0% 
14:      siesta_end: 1.0566e+00   0.3%  0.0000e+00   0.0%  0.000e+00   0.0%  0.000e+00        0.0%  0.000e+00   0.0% 

------------------------------------------------------------------------------------------------------------------------
See the 'Profiling' chapter of the users' manual for details on interpreting output.
Phase summary info:
   Count: number of times phase was executed
   Time and Flops: Max - maximum over all processors
                   Ratio - ratio of maximum to minimum over all processors
   Mess: number of messages sent
   Avg. len: average message length (bytes)
   Reduct: number of global reductions
   Global: entire computation
   Stage: stages of a computation. Set stages with PetscLogStagePush() and PetscLogStagePop().
      %T - percent time in this phase         %F - percent flops in this phase
      %M - percent messages in this phase     %L - percent message lengths in this phase
      %R - percent reductions in this phase
   Total Mflop/s: 10e-6 * (sum of flops over all processors)/(max time over all processors)
------------------------------------------------------------------------------------------------------------------------
Event                Count      Time (sec)     Flops                             --- Global ---  --- Stage ---   Total
                   Max Ratio  Max     Ratio   Max  Ratio  Mess   Avg len Reduct  %T %F %M %L %R  %T %F %M %L %R Mflop/s
------------------------------------------------------------------------------------------------------------------------

--- Event Stage 0: Main Stage


--- Event Stage 1: siesta_init


--- Event Stage 2: siesta_forces


--- Event Stage 3: siesta_solve


--- Event Stage 4: siesta2qetsc

MatConvert             2 1.0 1.4926e-03 1.2 0.00e+00 0.0 0.0e+00 0.0e+00 0.0e+00  0  0  0  0  0   1  0  0  0  0     0
MatAssemblyBegin      14 1.0 1.6973e-0185.2 0.00e+00 0.0 0.0e+00 0.0e+00 5.6e+01  0  0  0  0  1  48  0  0  0 81     0
MatAssemblyEnd        14 1.0 6.7963e-03 1.0 0.00e+00 0.0 1.4e+04 6.8e+01 1.1e+01  0  0  1  0  0   3  0100100 16     0
VecSet                 3 1.0 1.5276e-05 1.8 0.00e+00 0.0 0.0e+00 0.0e+00 0.0e+00  0  0  0  0  0   0  0  0  0  0     0

--- Event Stage 5: qetsc_setup_eps

MatCholFctrSym         1 1.0 6.2690e-01 1.0 0.00e+00 0.0 0.0e+00 0.0e+00 5.0e+00  0  0  0  0  0   8  0  0  0  3     0
MatCholFctrNum         1 1.0 3.2406e+00 1.3 0.00e+00 0.0 0.0e+00 0.0e+00 0.0e+00  1  0  0  0  0  36  0  0  0  0     0
MatConvert             1 1.0 7.8137e-03 2.5 0.00e+00 0.0 0.0e+00 0.0e+00 0.0e+00  0  0  0  0  0   0  0  0  0  0     0
MatScale              24 1.0 6.5000e-03 6.8 3.55e+06 2.7 0.0e+00 0.0e+00 0.0e+00  0  0  0  0  0   0100  0  0  0 23955
MatAssemblyBegin      29 1.0 1.8886e+00820.0 0.00e+00 0.0 0.0e+00 0.0e+00 6.0e+01  0  0  0  0  1  12  0  0  0 32     0
MatAssemblyEnd        29 1.0 1.0049e-01 1.4 0.00e+00 0.0 1.3e+03 4.1e+03 4.0e+01  0  0  0  0  0   1  0  1  0 21     0
MatGetRow           2944 1.0 9.6955e-02 2.8 0.00e+00 0.0 0.0e+00 0.0e+00 0.0e+00  0  0  0  0  0   1  0  0  0  0     0
MatGetSubMatrice      14 1.0 9.5382e-01 1.8 0.00e+00 0.0 1.4e+05 1.5e+04 2.8e+01  0  0 14 36  0  10  0 99100 15     0
MatAXPY               13 1.0 3.4039e-01 1.0 0.00e+00 0.0 3.2e+02 4.1e+03 1.6e+01  0  0  0  0  0   5  0  0  0  9     0
MatRedundantMat       14 1.0 3.1852e+00 1.1 0.00e+00 0.0 1.4e+05 1.5e+04 1.3e+02  1  0 14 36  1  42  0100100 69     0
MatMPIConcateSeq      14 1.0 2.5429e+00 1.1 0.00e+00 0.0 9.6e+02 4.1e+03 1.0e+02  1  0  0  0  1  32  0  1  0 54     0
VecSet                 6 1.0 3.3331e-05 2.3 0.00e+00 0.0 0.0e+00 0.0e+00 0.0e+00  0  0  0  0  0   0  0  0  0  0     0
EPSSetUp               1 1.0 4.6821e+00 1.0 0.00e+00 0.0 2.1e+04 1.5e+04 9.9e+01  1  0  2  5  1  64  0 15 14 53     0
STSetUp                2 1.0 4.2048e+00 1.2 0.00e+00 0.0 3.2e+02 4.1e+03 2.5e+01  1  0  0  0  0  49  0  0  0 13     0
KSPSetUp               1 1.0 3.7512e-06 2.5 0.00e+00 0.0 0.0e+00 0.0e+00 0.0e+00  0  0  0  0  0   0  0  0  0  0     0
PCSetUp                1 1.0 3.8731e+00 1.2 0.00e+00 0.0 0.0e+00 0.0e+00 5.0e+00  1  0  0  0  0  45  0  0  0  3     0

--- Event Stage 6: qetsc_solve_eps

MatMult             5534 0.0 3.7539e+01 0.0 6.52e+09 0.0 2.3e+05 1.2e+04 0.0e+00  6 78 23 45  0   7 78 71 74  0  4982
MatSolve            2113 0.0 1.0098e+02 0.0 0.00e+00 0.0 8.8e+04 1.1e+04 1.4e+03 18  0  9 16 14  23  0 27 26 32     0
MatCholFctrNum        21 1.8 5.3883e+01 1.7 0.00e+00 0.0 0.0e+00 0.0e+00 0.0e+00 10  0  0  0  0  13  0  0  0  0     0
MatCopy               21 1.8 4.0363e+00 1.8 0.00e+00 0.0 0.0e+00 0.0e+00 8.6e+01  1  0  0  0  1   1  0  0  0  2     0
MatAssemblyBegin      42 1.8 6.8164e+001593.7 0.00e+00 0.0 0.0e+00 0.0e+00 1.2e+02  1  0  0  0  1   1  0  0  0  3     0
MatAssemblyEnd        42 1.8 2.8135e-01 1.7 0.00e+00 0.0 4.6e+03 4.1e+03 1.7e+02  0  0  0  0  2   0  0  1  1  4     0
MatGetRow          92736 1.8 3.0006e+00 4.9 0.00e+00 0.0 0.0e+00 0.0e+00 0.0e+00  0  0  0  0  0   0  0  0  0  0     0
MatZeroEntries        21 1.8 1.3539e-02 2.7 0.00e+00 0.0 0.0e+00 0.0e+00 0.0e+00  0  0  0  0  0   0  0  0  0  0     0
MatAXPY               21 1.8 6.7179e+00 1.8 0.00e+00 0.0 4.6e+03 4.1e+03 2.3e+02  1  0  0  0  2   2  0  1  1  5     0
VecDot               402 0.0 9.7303e-01 0.0 1.18e+06 0.0 0.0e+00 0.0e+00 2.1e+02  0  0  0  0  2   0  0  0  0  5    40
VecCopy              338 0.0 1.2026e-03 0.0 0.00e+00 0.0 0.0e+00 0.0e+00 0.0e+00  0  0  0  0  0   0  0  0  0  0     0
VecSet             187321561.0 6.6728e-021471.8 0.00e+00 0.0 0.0e+00 0.0e+00 0.0e+00  0  0  0  0  0   0  0  0  0  0     0
VecScatterBegin     9760 0.0 5.4758e+00 0.0 0.00e+00 0.0 3.2e+05 1.2e+04 1.4e+03  1  0 32 61 14   1  0 98 99 31     0
VecScatterEnd       7647 0.0 1.3444e+01 0.0 0.00e+00 0.0 0.0e+00 0.0e+00 0.0e+00  1  0  0  0  0   2  0  0  0  0     0
VecSetRandom          13 0.0 1.1458e-02 0.0 0.00e+00 0.0 0.0e+00 0.0e+00 0.0e+00  0  0  0  0  0   0  0  0  0  0     0
EPSSetUp              13 1.0 4.6040e+01 1.0 0.00e+00 0.0 5.0e+03 3.5e+03 4.4e+02 13  0  0  0  4  16  0  2  0 10     0
EPSSolve              13 1.0 2.8680e+02 1.0 7.84e+09 0.0 3.3e+05 1.1e+04 4.4e+03 78100 32 61 44 100100100100100   839
STSetUp               25 1.0 3.8937e+01 1.1 0.00e+00 0.0 3.8e+03 4.1e+03 2.6e+02 10  0  0  0  3  13  0  1  0  6     0
STApply             2113 0.0 1.1060e+02 0.0 2.49e+09 0.0 1.8e+05 1.1e+04 1.4e+03 20 29 17 33 14  25 29 54 54 32   634
STMatSolve          2113 0.0 1.0133e+02 0.0 0.00e+00 0.0 8.8e+04 1.1e+04 1.4e+03 18  0  9 16 14  23  0 27 26 32     0
KSPSetUp              21 1.8 2.9830e-05 2.1 0.00e+00 0.0 0.0e+00 0.0e+00 0.0e+00  0  0  0  0  0   0  0  0  0  0     0
KSPSolve            2113 0.0 1.0108e+02 0.0 0.00e+00 0.0 8.8e+04 1.1e+04 1.4e+03 18  0  9 16 14  23  0 27 26 32     0
PCSetUp               21 1.8 5.3884e+01 1.7 0.00e+00 0.0 0.0e+00 0.0e+00 0.0e+00 10  0  0  0  0  13  0  0  0  0     0
PCApply             2113 0.0 1.0099e+02 0.0 0.00e+00 0.0 8.8e+04 1.1e+04 1.4e+03 18  0  9 16 14  23  0 27 26 32     0
BVCreate              30 0.0 1.7272e-02 0.0 0.00e+00 0.0 0.0e+00 0.0e+00 1.3e+02  0  0  0  0  1   0  0  0  0  3     0
BVCopy               338 0.0 2.4010e-03 0.0 0.00e+00 0.0 0.0e+00 0.0e+00 0.0e+00  0  0  0  0  0   0  0  0  0  0     0
BVMultVec           3043 0.0 6.1229e-01 0.0 4.83e+08 0.0 0.0e+00 0.0e+00 0.0e+00  0  8  0  0  0   0  8  0  0  0 31137
BVMultInPlace         57 0.0 1.8191e-01 0.0 3.56e+08 0.0 0.0e+00 0.0e+00 0.0e+00  0  6  0  0  0   0  6  0  0  0 81976
BVDotVec            3043 0.0 2.1197e+01 0.0 4.08e+09 0.0 1.3e+05 1.2e+04 2.1e+03  4 52 13 26 21   5 52 40 42 47  5928
BVOrthogonalizeV    1735 0.0 2.1808e+01 0.0 4.56e+09 0.0 1.3e+05 1.2e+04 2.1e+03  4 60 13 26 21   5 60 40 42 47  6636
BVScale             2113 0.0 1.8371e-02 0.0 3.11e+06 0.0 0.0e+00 0.0e+00 0.0e+00  0  0  0  0  0   0  0  0  0  0  6963
BVNormVec            402 0.0 2.7471e+00 0.0 4.75e+08 0.0 1.3e+04 1.2e+04 2.1e+02  0  4  1  3  2   0  4  4  4  5  3923
BVSetRandom           13 0.0 1.1549e-02 0.0 0.00e+00 0.0 0.0e+00 0.0e+00 0.0e+00  0  0  0  0  0   0  0  0  0  0     0
DSSolve               55 0.0 3.6095e-01 0.0 0.00e+00 0.0 0.0e+00 0.0e+00 0.0e+00  0  0  0  0  0   0  0  0  0  0     0
DSVectors           2290 0.0 5.6271e-03 0.0 0.00e+00 0.0 0.0e+00 0.0e+00 0.0e+00  0  0  0  0  0   0  0  0  0  0     0
DSOther               57 0.0 1.0717e-02 0.0 0.00e+00 0.0 0.0e+00 0.0e+00 0.0e+00  0  0  0  0  0   0  0  0  0  0     0

--- Event Stage 7: qetsc_eigvals


--- Event Stage 8: qetsc_density

VecCopy             6656 1.0 1.8229e-02 1.1 0.00e+00 0.0 0.0e+00 0.0e+00 0.0e+00  0  0  0  0  0   0  0  0  0  0     0
VecSet                 1 1.0 5.3275e-06 1.1 0.00e+00 0.0 0.0e+00 0.0e+00 0.0e+00  0  0  0  0  0   0  0  0  0  0     0
VecScatterBegin    13312 1.0 3.4316e+00 3.3 0.00e+00 0.0 4.2e+05 3.7e+02 6.7e+03  1  0 42  3 67  14  0 80 91 73     0
VecScatterEnd       6656 1.0 1.2063e+00 1.1 0.00e+00 0.0 0.0e+00 0.0e+00 0.0e+00  0  0  0  0  0   7  0  0  0  0     0
BVCopy              6656 1.0 5.1060e-02 1.1 0.00e+00 0.0 0.0e+00 0.0e+00 0.0e+00  0  0  0  0  0   0  0  0  0  0     0

--- Event Stage 9: Unknown


--- Event Stage 10: siesta_misc


--- Event Stage 11: siesta_move


--- Event Stage 12: siesta_analysis


--- Event Stage 13: qetsc_clean


--- Event Stage 14: siesta_end

------------------------------------------------------------------------------------------------------------------------

Memory usage is given in bytes:

Object Type          Creations   Destructions     Memory  Descendants' Mem.
Reports information only for process 0.

--- Event Stage 0: Main Stage


--- Event Stage 1: siesta_init


--- Event Stage 2: siesta_forces


--- Event Stage 3: siesta_solve


--- Event Stage 4: siesta2qetsc

              Matrix     9              0            0     0.
              Vector    19              1         1648     0.
      Vector Scatter     4              0            0     0.
           Index Set     4              4        28744     0.

--- Event Stage 5: qetsc_setup_eps

              Matrix    19              3      3814178     0.
              Vector    55             11        88304     0.
      Vector Scatter    10              1         1072     0.
           Index Set    53             46       177376     0.
          EPS Solver     2              0            0     0.
  Spectral Transform     2              0            0     0.
       Krylov Solver     2              0            0     0.
      Preconditioner     2              0            0     0.
       Basis Vectors     3              0            0     0.
         PetscRandom     1              0            0     0.
              Region     2              0            0     0.
       Direct Solver     2              0            0     0.

--- Event Stage 6: qetsc_solve_eps

              Matrix    36             36     48342096     0.
              Vector   161            161      1423952     0.
      Vector Scatter    24             24        25728     0.
           Index Set    48             48       461568     0.
       Basis Vectors    13             13        13728     0.

--- Event Stage 7: qetsc_eigvals


--- Event Stage 8: qetsc_density

              Vector    14             13       174512     0.
      Vector Scatter   417            416       450736     0.
           Index Set   833            833       806160     0.

--- Event Stage 9: Unknown


--- Event Stage 10: siesta_misc


--- Event Stage 11: siesta_move

              Matrix     0             25     36906314     0.
              Vector     0             63      1676528     0.
      Vector Scatter     0             14        14176     0.
           Index Set     0              7         5488     0.
          EPS Solver     0              2        29752     0.
  Spectral Transform     0              2         1632     0.
       Krylov Solver     0              2         2336     0.
      Preconditioner     0              2         1952     0.
       Basis Vectors     0              3         3168     0.
         PetscRandom     0              1          638     0.
              Region     0              2         1312     0.
       Direct Solver     0              2       109992     0.

--- Event Stage 12: siesta_analysis


--- Event Stage 13: qetsc_clean


--- Event Stage 14: siesta_end

              Viewer     1              0            0     0.
========================================================================================================================
Average time to get PetscTime(): 1.38125e-07
Average time for MPI_Barrier(): 2.869e-06
Average time for zero size MPI_Send(): 1.10263e-05
#PETSc Option Table entries:
-eps_interval -2.3,0.
-eps_krylovschur_detect_zeros 0
-eps_krylovschur_partitions 32
-ioptbin 7
-ioptdensity 0
-ioptinertia 1
-ioptleft 2
-ioptwrite 1
-log_view
-mat_mumps_cntl_3 1e-12
-mat_mumps_icntl_13 1
-mat_mumps_icntl_24 1
-mat_mumps_icntl_7 5
-mat_type mpisbaij
-roptbuffer 0.1
-roptdiff 0.05
#End of PETSc Option Table entries
Compiled with FORTRAN kernels
Compiled with full precision matrices (default)
sizeof(short) 2 sizeof(int) 4 sizeof(long) 8 sizeof(void*) 8 sizeof(PetscScalar) 8 sizeof(PetscInt) 4
Configure options: --known-has-attribute-aligned=1 --download-chaco=0 --download-cmake=0 --download-hypre=0 --download-metis=1 --download-mumps=1 --download-parmetis=1 --download-plapack=0 --download-prometheus=0 --download-ptscotch=1 --download-spai=0 --download-spooles=0 --download-superlu=0 --download-superlu_dist=0 --download-triangle=0 --known-bits-per-byte=8 --known-level1-dcache-assoc=0 --known-level1-dcache-linesize=32 --known-level1-dcache-size=32768 --known-memcmp-ok=1 --known-mpi-c-double-complex=1 --known-mpi-int64_t=1 --known-mpi-long-double=1 --known-mpi-shared-libraries=0 --known-sdot-returns-double=0 --known-sizeof-MPI_Comm=4 --known-sizeof-MPI_Fint=4 --known-sizeof-char=1 --known-sizeof-double=8 --known-sizeof-float=4 --known-sizeof-int=4 --known-sizeof-long-long=8 --known-sizeof-long=8 --known-sizeof-short=2 --known-sizeof-size_t=8 --known-sizeof-void-p=8 --known-snrm2-returns-double=0 --with-batch=1 --with-blacs-include=/soft/libraries/alcf/current/xl/SCALAPACK/ --with-blacs-lib=/soft/libraries/alcf/current/xl/SCALAPACK/lib/libscalapack.a --with-blas-lapack-lib="-L/soft/libraries/alcf/current/xl/LAPACK/lib -llapack -L/soft/libraries/alcf/current/xl/BLAS/lib -lblas" --with-cc=mpixlc_r --with-clib-autodetect=0 --with-cxx=mpixlcxx_r --with-cxxlib-autodetect=0 --with-debugging=0 --with-fc="mpixlf77_r -qnosave" --with-fortran-kernels=1 --with-fortranlib-autodetect=0 --with-is-color-value-type=short --with-scalapack-include=/soft/libraries/alcf/current/xl/SCALAPACK/ --with-scalapack-lib=/soft/libraries/alcf/current/xl/SCALAPACK/lib/libscalapack.a --with-shared-libraries=0 --with-x=0 -COPTFLAGS=" -g -O3 -qhot=level=0 -qsimd=auto -qmaxmem=-1 -qstrict -qstrict_induction" -CXXOPTFLAGS="  -g -O3 -qhot=level=0 -qsimd=auto -qmaxmem=-1 -qstrict -qstrict_induction" -FOPTFLAGS=" -g -O3 -qhot=level=0 -qsimd=auto -qmaxmem=-1 -qstrict -qstrict_induction" LIBS="-lmpichcxx-gcc -lmpichf77-gcc -L/soft/compilers/ibmcmp-feb2015/vacpp/bg/12.1/bglib64 -libmc++ -L/soft/compilers/ibmcmp-feb2015/xlf/bg/14.1/bglib64 -lxlf90_r -lxlomp_ser -lxlfmath" PETSC_ARCH=arch-xl
-----------------------------------------
Libraries compiled on Sat Aug 20 04:19:47 2016 on vestalac2 
Machine characteristics: Linux-2.6.32-573.18.1.el6.ppc64-ppc64-with-redhat-6.7-Santiago
Using PETSc directory: /home/keceli/scratch2/petsc
Using PETSc arch: arch-xl
-----------------------------------------

Using C compiler: mpixlc_r   -g -O3 -qhot=level=0 -qsimd=auto -qmaxmem=-1 -qstrict -qstrict_induction  ${COPTFLAGS} ${CFLAGS}
Using Fortran compiler: mpixlf77_r -qnosave  -g -O3 -qhot=level=0 -qsimd=auto -qmaxmem=-1 -qstrict -qstrict_induction   ${FOPTFLAGS} ${FFLAGS} 
-----------------------------------------

Using include paths: -I/home/keceli/scratch2/petsc/arch-xl/include -I/home/keceli/scratch2/petsc/include -I/home/keceli/scratch2/petsc/include -I/home/keceli/scratch2/petsc/arch-xl/include -I/bgsys/drivers/V1R2M4/ppc64/comm/include -I/bgsys/drivers/V1R2M4/ppc64/comm/lib/xl -I/bgsys/drivers/V1R2M4/ppc64 -I/bgsys/drivers/V1R2M4/ppc64/comm/sys/include -I/bgsys/drivers/V1R2M4/ppc64/spi/include -I/bgsys/drivers/V1R2M4/ppc64/spi/include/kernel/cnk
-----------------------------------------

Using C linker: mpixlc_r
Using Fortran linker: mpixlf77_r -qnosave
Using libraries: -Wl,-rpath,/home/keceli/scratch2/petsc/arch-xl/lib -L/home/keceli/scratch2/petsc/arch-xl/lib -lpetsc -Wl,-rpath,/home/keceli/scratch2/petsc/arch-xl/lib -L/home/keceli/scratch2/petsc/arch-xl/lib -lcmumps -ldmumps -lsmumps -lzmumps -lmumps_common -lpord -Wl,-rpath,/soft/libraries/alcf/current/xl/SCALAPACK/lib -L/soft/libraries/alcf/current/xl/SCALAPACK/lib -lscalapack -L/soft/libraries/alcf/current/xl/LAPACK/lib -llapack -L/soft/libraries/alcf/current/xl/BLAS/lib -lblas -lparmetis -lmetis -lptesmumps -lptscotch -lptscotcherr -lscotch -lscotcherr -lrt -lm -lpthread -ldl -lmpichcxx-gcc -lmpichf77-gcc -L/soft/compilers/ibmcmp-feb2015/vacpp/bg/12.1/bglib64 -libmc++ -L/soft/compilers/ibmcmp-feb2015/xlf/bg/14.1/bglib64 -lxlf90_r -lxlomp_ser -lxlfmath
-----------------------------------------

