s.subSiesta: Submission time = 50s51m17h
s.subSiesta: Job name = qcgp32_s32_n2_c16_vesta
s.subSiesta: Number of nodes = 2
s.subSiesta: Number of cores = 32
s.subSiesta: Number of cores/node = 16
s.subSiesta: Number of slices = 32
s.subSiesta: Mapping = ABCDET
50s51m17h
-ioptbin 7
-ioptdensity 0
-ioptinertia 1
-ioptleft 2
-ioptwrite 1
-roptbuffer 0.1
-roptdiff 0.02
# A chain of identical atoms (instead of an xyz file) can be specified with the following options 
#-N 10 # Number of atoms
#-Z 8 # Atomic number
#-c 32 # Maximum number of interactions of an atom

# A petsc matrix (binary) can be given
#-method file
#-fA '/Volumes/s/matrices/petscbinary/graphene_xxs_A'
#-fB '/Volumes/s/matrices/petscbinary/graphene_xxs_B'
#-scfthresh 1.e-3

#PETSc options
-mat_type mpisbaij
-log_view
#-mat_view
#-memory_view
#-mat_mumps_icntl_13 1 #turn off scaLAPACK for matrix inertia
#-mat_mumps_icntl_24 1 #null pivot row detection for matrix inertia
#-mat_mumps_icntl_23 0
#-mat_mumps_icntl_28 1 # serial analysis
#-mat_mumps_icntl_28 2 #parallel analysis
#-mat_mumps_icntl_29 1 #ptscotch
#-mat_mumps_icntl_29 2 #parmetis
-mat_mumps_icntl_7 3 #metis
#-malloc_info 
#-mat_view ::ascii_info 
#-mat_getrow_uppertriangular 1
#-st_type sinvert 
#-st_ksp_type preonly 
#-st_pc_type cholesky 
#-st_pc_factor_mat_solver_package mumps 

#SLEPc options

#-eps_krylovschur_partitions 1  
-eps_interval -2.3,0.
#-eps_tol  1.e-8
-eps_krylovschur_detect_zeros 0
#-eps_purify 1
SystemName          polyethylene
SystemLabel         polyethylene
NumberOfAtoms       6
NumberOfSpecies     2

%block ChemicalSpeciesLabel
 1  6  C
 2  1  H
%endblock ChemicalSpeciesLabel

DM.MixingWeight 0.3
DM.NumberPulay 3
#BlockSize 23
SolutionMethod  qetsc
WriteDM .false.
WriteDM.NetCDF .false.
WriteDMHS.NetCDF .false.
LongOutput .false.
#MaxSCFIterations 1

MD.TypeOfRun         cg
MD.NumCGsteps        50
MD.MaxCGDispl         0.1  Ang
MD.MaxForceTol        0.04 eV/Ang

PAO.BasisType split
PAO.BasisSize DZP

LatticeConstant 1.00 Ang
%block LatticeVectors
20.000  0.000  0.000
 0.000 20.000  0.000
 0.000  0.000  2.572
%endblock LatticeVectors

%block kgrid_Monkhorst_Pack
1 0 0 0.0
0 1 0 0.0
0 0 1 0.0
%endblock kgrid_Monkhorst_Pack

%block SuperCell
1 0 0
0 1 0
0 0 32
%endblock SuperCell

AtomicCoordinatesFormat Ang
%block AtomicCoordinatesAndAtomicSpecies
  0.31237500000000001       0.28138740000000001       0.64300000000000002     1
   1.3964999999999999        7.3970400000000006E-002  0.64300000000000002     2
  0.21462000000000001        1.3794480000000002       0.64300000000000002     2
 -0.31237500000000001      -0.28138740000000001      -0.64300000000000002     1
  -1.3964999999999999       -7.3970400000000006E-002 -0.64300000000000002     2
 -0.21462000000000001       -1.3794480000000002      -0.64300000000000002     2
%endblock AtomicCoordinatesAndAtomicSpecies
Siesta Version: siesta-trunk-492
Architecture  : powerpc64-unknown-linux-gnu--Xlf
Compiler flags: mpixlf90_r -I/home/keceli/scratch2/petsc/include -I/home/keceli/scratch2/petssc/arch-xl/include -I/bgsys/drivers/V1R2M4/ppc64/comm/include -I/bgsys/drivers/V1R2M4/ppc64/comm/lib/xl -I/bgsys/drivers/V1R2M4/ppc64 -I/bgsys/drivers/V1R2M4/ppc64/comm/sys/include -I/bgsys/drivers/V1R2M4/ppc64/spi/include -I/bgsys/drivers/V1R2M4/ppc64/spi/include/kernel/cnk -I/home/keceli/scratch2/slepcfork/include -I/home/keceli/scratch2/slepcfork/arch-xl/include
PP flags      : -WF,-DMPI -WF,-DFC_HAVE_ABORT -WF,-DBSC_CELLXC -WF,-DMPI_TIMING 
PARALLEL version

* Running on   32 nodes in parallel
>> Start of run:  22-DEC-2016  17:52:51

                           ***********************       
                           *  WELCOME TO SIESTA  *       
                           ***********************       
WARNING: Siesta is reading its input from file INPUT_DEBUG

reinit: -----------------------------------------------------------------------
reinit: System Name: polyethylene
reinit: -----------------------------------------------------------------------
reinit: System Label: polyethylene                                                
reinit: -----------------------------------------------------------------------

initatom: Reading input for the pseudopotentials and atomic orbitals ----------
Species number:   1 Atomic number:    6 Label: C
Species number:   2 Atomic number:    1 Label: H
 
Ground state valence configuration:   2s02  2p02
Reading pseudopotential information in formatted form from C.psf

Valence configuration for pseudopotential generation:
2s( 2.00) rc: 1.54
2p( 2.00) rc: 1.54
3d( 0.00) rc: 1.54
4f( 0.00) rc: 1.54
Ground state valence configuration:   1s01
Reading pseudopotential information in formatted form from H.psf

Valence configuration for pseudopotential generation:
1s( 1.00) rc: 1.31
2p( 0.00) rc: 1.31
3d( 0.00) rc: 0.37
4f( 0.00) rc: 1.31
For C, standard SIESTA heuristics set lmxkb to 3
 (one more than the basis l, including polarization orbitals).
Use PS.lmax or PS.KBprojectors blocks to override.
For H, standard SIESTA heuristics set lmxkb to 2
 (one more than the basis l, including polarization orbitals).
Use PS.lmax or PS.KBprojectors blocks to override.

<basis_specs>
===============================================================================
C                    Z=   6    Mass=  12.010        Charge= 0.17977+309
Lmxo=1 Lmxkb= 3    BasisType=split      Semic=F
L=0  Nsemic=0  Cnfigmx=2
          n=1  nzeta=2  polorb=0
            splnorm:   0.15000    
               vcte:    0.0000    
               rinn:    0.0000    
               qcoe:    0.0000    
               qyuk:    0.0000    
               qwid:   0.10000E-01
                rcs:    0.0000      0.0000    
            lambdas:    1.0000      1.0000    
L=1  Nsemic=0  Cnfigmx=2
          n=1  nzeta=2  polorb=1
            splnorm:   0.15000    
               vcte:    0.0000    
               rinn:    0.0000    
               qcoe:    0.0000    
               qyuk:    0.0000    
               qwid:   0.10000E-01
                rcs:    0.0000      0.0000    
            lambdas:    1.0000      1.0000    
-------------------------------------------------------------------------------
L=0  Nkbl=1  erefs: 0.17977+309
L=1  Nkbl=1  erefs: 0.17977+309
L=2  Nkbl=1  erefs: 0.17977+309
L=3  Nkbl=1  erefs: 0.17977+309
===============================================================================
</basis_specs>

atom: Called for C                     (Z =   6)

read_vps: Pseudopotential generation method:
read_vps: ATM3      Troullier-Martins                       
Total valence charge:    4.00000

xc_check: Exchange-correlation functional:
xc_check: Ceperley-Alder
V l=0 = -2*Zval/r beyond r=  1.5227
V l=1 = -2*Zval/r beyond r=  1.5227
V l=2 = -2*Zval/r beyond r=  1.5227
V l=3 = -2*Zval/r beyond r=  1.5038
All V_l potentials equal beyond r=  1.5227
This should be close to max(r_c) in ps generation
All pots = -2*Zval/r beyond r=  1.5227

VLOCAL1: 99.0% of the norm of Vloc inside     18.722 Ry
VLOCAL1: 99.9% of the norm of Vloc inside     42.668 Ry
atom: Maximum radius for 4*pi*r*r*local-pseudopot. charge    1.83678
atom: Maximum radius for r*vlocal+2*Zval:    1.58088
GHOST: No ghost state for L =  0
GHOST: No ghost state for L =  1
GHOST: No ghost state for L =  2
GHOST: No ghost state for L =  3

KBgen: Kleinman-Bylander projectors: 
   l= 0   rc=  1.747182   el= -1.001948   Ekb=  4.950286   kbcos=  0.319819
   l= 1   rc=  1.747182   el= -0.398598   Ekb= -4.108613   kbcos= -0.367053
   l= 2   rc=  1.930978   el=  0.002326   Ekb= -1.042946   kbcos= -0.009366
   l= 3   rc=  2.055542   el=  0.003420   Ekb= -0.408633   kbcos= -0.001262

KBgen: Total number of  Kleinman-Bylander projectors:   16
atom: -------------------------------------------------------------------------

atom: SANKEY-TYPE ORBITALS:
atom: Selected multiple-zeta basis: split     

SPLIT: Orbitals with angular momentum L= 0

SPLIT: Basis orbitals for state 2s

SPLIT: PAO cut-off radius determined from an
SPLIT: energy shift=  0.020000 Ry

   izeta = 1
                 lambda =    1.000000
                     rc =    4.191849
                 energy =   -0.983897
                kinetic =    0.880927
    potential(screened) =   -1.864824
       potential(ionic) =   -5.475687

   izeta = 2
                 rmatch =    3.431921
              splitnorm =    0.150000
                 energy =   -0.853083
                kinetic =    1.298222
    potential(screened) =   -2.151305
       potential(ionic) =   -5.995890

SPLIT: Orbitals with angular momentum L= 1

SPLIT: Basis orbitals for state 2p

SPLIT: PAO cut-off radius determined from an
SPLIT: energy shift=  0.020000 Ry

   izeta = 1
                 lambda =    1.000000
                     rc =    4.870301
                 energy =   -0.379093
                kinetic =    2.540023
    potential(screened) =   -2.919116
       potential(ionic) =   -6.427960

   izeta = 2
                 rmatch =    3.475094
              splitnorm =    0.150000
                 energy =   -0.215057
                kinetic =    3.814571
    potential(screened) =   -4.029628
       potential(ionic) =   -7.920250

POLgen: Perturbative polarization orbital with L=  2

POLgen: Polarization orbital for state 2p

   izeta = 1
                     rc =    4.870301
                 energy =    1.280996
                kinetic =    2.631310
    potential(screened) =   -1.350314
       potential(ionic) =   -4.295640
atom: Total number of Sankey-type orbitals: 13

atm_pop: Valence configuration (for local Pseudopot. screening):
 2s( 2.00)                                                            
 2p( 2.00)                                                            
Vna: chval, zval:    4.00000   4.00000

Vna:  Cut-off radius for the neutral-atom potential:   4.870301

atom: _________________________________________________________________________

<basis_specs>
===============================================================================
H                    Z=   1    Mass=  1.0100        Charge= 0.17977+309
Lmxo=0 Lmxkb= 2    BasisType=split      Semic=F
L=0  Nsemic=0  Cnfigmx=1
          n=1  nzeta=2  polorb=1
            splnorm:   0.15000    
               vcte:    0.0000    
               rinn:    0.0000    
               qcoe:    0.0000    
               qyuk:    0.0000    
               qwid:   0.10000E-01
                rcs:    0.0000      0.0000    
            lambdas:    1.0000      1.0000    
-------------------------------------------------------------------------------
L=0  Nkbl=1  erefs: 0.17977+309
L=1  Nkbl=1  erefs: 0.17977+309
L=2  Nkbl=1  erefs: 0.17977+309
===============================================================================
</basis_specs>

atom: Called for H                     (Z =   1)

read_vps: Pseudopotential generation method:
read_vps: ATM3      Troullier-Martins                       
Total valence charge:    1.00000

xc_check: Exchange-correlation functional:
xc_check: Ceperley-Alder
V l=0 = -2*Zval/r beyond r=  1.2977
V l=1 = -2*Zval/r beyond r=  1.2815
V l=2 = -2*Zval/r beyond r=  1.1307
All V_l potentials equal beyond r=  1.2977
This should be close to max(r_c) in ps generation
All pots = -2*Zval/r beyond r=  1.2977

VLOCAL1: 99.0% of the norm of Vloc inside     25.776 Ry
VLOCAL1: 99.9% of the norm of Vloc inside     58.745 Ry
atom: Maximum radius for 4*pi*r*r*local-pseudopot. charge    1.52711
atom: Maximum radius for r*vlocal+2*Zval:    1.28155
GHOST: No ghost state for L =  0
GHOST: No ghost state for L =  1
GHOST: No ghost state for L =  2

KBgen: Kleinman-Bylander projectors: 
   l= 0   rc=  1.434438   el= -0.467325   Ekb= -1.940326   kbcos= -0.353040
   l= 1   rc=  1.508111   el=  0.001430   Ekb= -0.480826   kbcos= -0.024144
   l= 2   rc=  1.527112   el=  0.002365   Ekb= -0.479392   kbcos= -0.001656

KBgen: Total number of  Kleinman-Bylander projectors:    9
atom: -------------------------------------------------------------------------

atom: SANKEY-TYPE ORBITALS:
atom: Selected multiple-zeta basis: split     

SPLIT: Orbitals with angular momentum L= 0

SPLIT: Basis orbitals for state 1s

SPLIT: PAO cut-off radius determined from an
SPLIT: energy shift=  0.020000 Ry

   izeta = 1
                 lambda =    1.000000
                     rc =    4.828263
                 energy =   -0.449375
                kinetic =    0.925762
    potential(screened) =   -1.375137
       potential(ionic) =   -1.911235

   izeta = 2
                 rmatch =    3.854947
              splitnorm =    0.150000
                 energy =   -0.336149
                kinetic =    1.498089
    potential(screened) =   -1.834238
       potential(ionic) =   -2.406110

POLgen: Perturbative polarization orbital with L=  1

POLgen: Polarization orbital for state 1s

   izeta = 1
                     rc =    4.828263
                 energy =    0.707053
                kinetic =    1.398668
    potential(screened) =   -0.691614
       potential(ionic) =   -1.171973
atom: Total number of Sankey-type orbitals:  5

atm_pop: Valence configuration (for local Pseudopot. screening):
 1s( 1.00)                                                            
Vna: chval, zval:    1.00000   1.00000

Vna:  Cut-off radius for the neutral-atom potential:   4.828263

atom: _________________________________________________________________________

prinput: Basis input ----------------------------------------------------------

PAO.BasisType split     

%block ChemicalSpeciesLabel
    1    6 C                       # Species index, atomic number, species label
    2    1 H                       # Species index, atomic number, species label
%endblock ChemicalSpeciesLabel

%block PAO.Basis                 # Define Basis set
C                     2                    # Species label, number of l-shells
 n=2   0   2                         # n, l, Nzeta 
   4.192      3.432   
   1.000      1.000   
 n=2   1   2 P   1                   # n, l, Nzeta, Polarization, NzetaPol
   4.870      3.475   
   1.000      1.000   
H                     1                    # Species label, number of l-shells
 n=1   0   2 P   1                   # n, l, Nzeta, Polarization, NzetaPol
   4.828      3.855   
   1.000      1.000   
%endblock PAO.Basis

prinput: ----------------------------------------------------------------------

coor:   Atomic-coordinates input format  =     Cartesian coordinates
coor:                                          (in Angstroms)

siesta: Atomic coordinates (Bohr) and species
siesta:      0.59030   0.53175   1.21509  1        1
siesta:      2.63900   0.13978   1.21509  2        2
siesta:      0.40557   2.60678   1.21509  2        3
siesta:     -0.59030  -0.53175  -1.21509  1        4
siesta:     -2.63900  -0.13978  -1.21509  2        5
siesta:     -0.40557  -2.60678  -1.21509  2        6
siesta:      0.59030   0.53175   6.07547  1        7
siesta:      2.63900   0.13978   6.07547  2        8
siesta:      0.40557   2.60678   6.07547  2        9
siesta:     -0.59030  -0.53175   3.64528  1       10
siesta:     -2.63900  -0.13978   3.64528  2       11
siesta:     -0.40557  -2.60678   3.64528  2       12
siesta:      0.59030   0.53175  10.93585  1       13
siesta:      2.63900   0.13978  10.93585  2       14
siesta:      0.40557   2.60678  10.93585  2       15
siesta:     -0.59030  -0.53175   8.50566  1       16
siesta:     -2.63900  -0.13978   8.50566  2       17
siesta:     -0.40557  -2.60678   8.50566  2       18
siesta:      0.59030   0.53175  15.79623  1       19
siesta:      2.63900   0.13978  15.79623  2       20
siesta:      0.40557   2.60678  15.79623  2       21
siesta:     -0.59030  -0.53175  13.36604  1       22
siesta:     -2.63900  -0.13978  13.36604  2       23
siesta:     -0.40557  -2.60678  13.36604  2       24
siesta:      0.59030   0.53175  20.65660  1       25
siesta:      2.63900   0.13978  20.65660  2       26
siesta:      0.40557   2.60678  20.65660  2       27
siesta:     -0.59030  -0.53175  18.22642  1       28
siesta:     -2.63900  -0.13978  18.22642  2       29
siesta:     -0.40557  -2.60678  18.22642  2       30
siesta:      0.59030   0.53175  25.51698  1       31
siesta:      2.63900   0.13978  25.51698  2       32
siesta:      0.40557   2.60678  25.51698  2       33
siesta:     -0.59030  -0.53175  23.08679  1       34
siesta:     -2.63900  -0.13978  23.08679  2       35
siesta:     -0.40557  -2.60678  23.08679  2       36
siesta:      0.59030   0.53175  30.37736  1       37
siesta:      2.63900   0.13978  30.37736  2       38
siesta:      0.40557   2.60678  30.37736  2       39
siesta:     -0.59030  -0.53175  27.94717  1       40
siesta:     -2.63900  -0.13978  27.94717  2       41
siesta:     -0.40557  -2.60678  27.94717  2       42
siesta:      0.59030   0.53175  35.23774  1       43
siesta:      2.63900   0.13978  35.23774  2       44
siesta:      0.40557   2.60678  35.23774  2       45
siesta:     -0.59030  -0.53175  32.80755  1       46
siesta:     -2.63900  -0.13978  32.80755  2       47
siesta:     -0.40557  -2.60678  32.80755  2       48
siesta:      0.59030   0.53175  40.09811  1       49
siesta:      2.63900   0.13978  40.09811  2       50
siesta:      0.40557   2.60678  40.09811  2       51
siesta:     -0.59030  -0.53175  37.66793  1       52
siesta:     -2.63900  -0.13978  37.66793  2       53
siesta:     -0.40557  -2.60678  37.66793  2       54
siesta:      0.59030   0.53175  44.95849  1       55
siesta:      2.63900   0.13978  44.95849  2       56
siesta:      0.40557   2.60678  44.95849  2       57
siesta:     -0.59030  -0.53175  42.52830  1       58
siesta:     -2.63900  -0.13978  42.52830  2       59
siesta:     -0.40557  -2.60678  42.52830  2       60
siesta:      0.59030   0.53175  49.81887  1       61
siesta:      2.63900   0.13978  49.81887  2       62
siesta:      0.40557   2.60678  49.81887  2       63
siesta:     -0.59030  -0.53175  47.38868  1       64
siesta:     -2.63900  -0.13978  47.38868  2       65
siesta:     -0.40557  -2.60678  47.38868  2       66
siesta:      0.59030   0.53175  54.67925  1       67
siesta:      2.63900   0.13978  54.67925  2       68
siesta:      0.40557   2.60678  54.67925  2       69
siesta:     -0.59030  -0.53175  52.24906  1       70
siesta:     -2.63900  -0.13978  52.24906  2       71
siesta:     -0.40557  -2.60678  52.24906  2       72
siesta:      0.59030   0.53175  59.53962  1       73
siesta:      2.63900   0.13978  59.53962  2       74
siesta:      0.40557   2.60678  59.53962  2       75
siesta:     -0.59030  -0.53175  57.10944  1       76
siesta:     -2.63900  -0.13978  57.10944  2       77
siesta:     -0.40557  -2.60678  57.10944  2       78
siesta:      0.59030   0.53175  64.40000  1       79
siesta:      2.63900   0.13978  64.40000  2       80
siesta:      0.40557   2.60678  64.40000  2       81
siesta:     -0.59030  -0.53175  61.96981  1       82
siesta:     -2.63900  -0.13978  61.96981  2       83
siesta:     -0.40557  -2.60678  61.96981  2       84
siesta:      0.59030   0.53175  69.26038  1       85
siesta:      2.63900   0.13978  69.26038  2       86
siesta:      0.40557   2.60678  69.26038  2       87
siesta:     -0.59030  -0.53175  66.83019  1       88
siesta:     -2.63900  -0.13978  66.83019  2       89
siesta:     -0.40557  -2.60678  66.83019  2       90
siesta:      0.59030   0.53175  74.12076  1       91
siesta:      2.63900   0.13978  74.12076  2       92
siesta:      0.40557   2.60678  74.12076  2       93
siesta:     -0.59030  -0.53175  71.69057  1       94
siesta:     -2.63900  -0.13978  71.69057  2       95
siesta:     -0.40557  -2.60678  71.69057  2       96
siesta:      0.59030   0.53175  78.98113  1       97
siesta:      2.63900   0.13978  78.98113  2       98
siesta:      0.40557   2.60678  78.98113  2       99
siesta:     -0.59030  -0.53175  76.55095  1      100
siesta:     -2.63900  -0.13978  76.55095  2      101
siesta:     -0.40557  -2.60678  76.55095  2      102
siesta:      0.59030   0.53175  83.84151  1      103
siesta:      2.63900   0.13978  83.84151  2      104
siesta:      0.40557   2.60678  83.84151  2      105
siesta:     -0.59030  -0.53175  81.41132  1      106
siesta:     -2.63900  -0.13978  81.41132  2      107
siesta:     -0.40557  -2.60678  81.41132  2      108
siesta:      0.59030   0.53175  88.70189  1      109
siesta:      2.63900   0.13978  88.70189  2      110
siesta:      0.40557   2.60678  88.70189  2      111
siesta:     -0.59030  -0.53175  86.27170  1      112
siesta:     -2.63900  -0.13978  86.27170  2      113
siesta:     -0.40557  -2.60678  86.27170  2      114
siesta:      0.59030   0.53175  93.56227  1      115
siesta:      2.63900   0.13978  93.56227  2      116
siesta:      0.40557   2.60678  93.56227  2      117
siesta:     -0.59030  -0.53175  91.13208  1      118
siesta:     -2.63900  -0.13978  91.13208  2      119
siesta:     -0.40557  -2.60678  91.13208  2      120
siesta:      0.59030   0.53175  98.42264  1      121
siesta:      2.63900   0.13978  98.42264  2      122
siesta:      0.40557   2.60678  98.42264  2      123
siesta:     -0.59030  -0.53175  95.99246  1      124
siesta:     -2.63900  -0.13978  95.99246  2      125
siesta:     -0.40557  -2.60678  95.99246  2      126
siesta:      0.59030   0.53175 103.28302  1      127
siesta:      2.63900   0.13978 103.28302  2      128
siesta:      0.40557   2.60678 103.28302  2      129
siesta:     -0.59030  -0.53175 100.85283  1      130
siesta:     -2.63900  -0.13978 100.85283  2      131
siesta:     -0.40557  -2.60678 100.85283  2      132
siesta:      0.59030   0.53175 108.14340  1      133
siesta:      2.63900   0.13978 108.14340  2      134
siesta:      0.40557   2.60678 108.14340  2      135
siesta:     -0.59030  -0.53175 105.71321  1      136
siesta:     -2.63900  -0.13978 105.71321  2      137
siesta:     -0.40557  -2.60678 105.71321  2      138
siesta:      0.59030   0.53175 113.00378  1      139
siesta:      2.63900   0.13978 113.00378  2      140
siesta:      0.40557   2.60678 113.00378  2      141
siesta:     -0.59030  -0.53175 110.57359  1      142
siesta:     -2.63900  -0.13978 110.57359  2      143
siesta:     -0.40557  -2.60678 110.57359  2      144
siesta:      0.59030   0.53175 117.86416  1      145
siesta:      2.63900   0.13978 117.86416  2      146
siesta:      0.40557   2.60678 117.86416  2      147
siesta:     -0.59030  -0.53175 115.43397  1      148
siesta:     -2.63900  -0.13978 115.43397  2      149
siesta:     -0.40557  -2.60678 115.43397  2      150
siesta:      0.59030   0.53175 122.72453  1      151
siesta:      2.63900   0.13978 122.72453  2      152
siesta:      0.40557   2.60678 122.72453  2      153
siesta:     -0.59030  -0.53175 120.29434  1      154
siesta:     -2.63900  -0.13978 120.29434  2      155
siesta:     -0.40557  -2.60678 120.29434  2      156
siesta:      0.59030   0.53175 127.58491  1      157
siesta:      2.63900   0.13978 127.58491  2      158
siesta:      0.40557   2.60678 127.58491  2      159
siesta:     -0.59030  -0.53175 125.15472  1      160
siesta:     -2.63900  -0.13978 125.15472  2      161
siesta:     -0.40557  -2.60678 125.15472  2      162
siesta:      0.59030   0.53175 132.44529  1      163
siesta:      2.63900   0.13978 132.44529  2      164
siesta:      0.40557   2.60678 132.44529  2      165
siesta:     -0.59030  -0.53175 130.01510  1      166
siesta:     -2.63900  -0.13978 130.01510  2      167
siesta:     -0.40557  -2.60678 130.01510  2      168
siesta:      0.59030   0.53175 137.30567  1      169
siesta:      2.63900   0.13978 137.30567  2      170
siesta:      0.40557   2.60678 137.30567  2      171
siesta:     -0.59030  -0.53175 134.87548  1      172
siesta:     -2.63900  -0.13978 134.87548  2      173
siesta:     -0.40557  -2.60678 134.87548  2      174
siesta:      0.59030   0.53175 142.16604  1      175
siesta:      2.63900   0.13978 142.16604  2      176
siesta:      0.40557   2.60678 142.16604  2      177
siesta:     -0.59030  -0.53175 139.73585  1      178
siesta:     -2.63900  -0.13978 139.73585  2      179
siesta:     -0.40557  -2.60678 139.73585  2      180
siesta:      0.59030   0.53175 147.02642  1      181
siesta:      2.63900   0.13978 147.02642  2      182
siesta:      0.40557   2.60678 147.02642  2      183
siesta:     -0.59030  -0.53175 144.59623  1      184
siesta:     -2.63900  -0.13978 144.59623  2      185
siesta:     -0.40557  -2.60678 144.59623  2      186
siesta:      0.59030   0.53175 151.88680  1      187
siesta:      2.63900   0.13978 151.88680  2      188
siesta:      0.40557   2.60678 151.88680  2      189
siesta:     -0.59030  -0.53175 149.45661  1      190
siesta:     -2.63900  -0.13978 149.45661  2      191
siesta:     -0.40557  -2.60678 149.45661  2      192

siesta: System type = chain     

initatomlists: Number of atoms, orbitals, and projectors:    192  1472  2176

siesta: ******************** Simulation parameters ****************************
siesta:
siesta: The following are some of the parameters of the simulation.
siesta: A complete list of the parameters used, including default values,
siesta: can be found in file out.fdf
siesta:
redata: Non-Collinear-spin run           =     F
redata: SpinPolarized (Up/Down) run      =     F
redata: Number of spin components        =     1
redata: Long output                      =     F
redata: Number of Atomic Species         =        2
redata: Charge density info will appear in .RHO file
redata: Write Mulliken Pop.              =     NO
redata: Mesh Cutoff                      =   100.0000  Ry
redata: Net charge of the system         =     0.0000 |e|
redata: Min. number of SCF Iter          =        0
redata: Max. number of SCF Iter          =       50
redata: Mix DM or H after convergence    =     F
redata: Recompute H after scf cycle      =     F
redata: Performing Pulay mixing using    =     3 iterations
redata: Mix DM in first SCF step ?       =     F
redata: Write Pulay info on disk?        =     F
redata: Discard 1st Pulay DM after  kick =     F
redata: New DM Mixing Weight             =     0.3000
redata: New DM Occupancy tolerance       = 0.000000000001
redata: No kicks to SCF
redata: DM Mixing Weight for Kicks       =     0.5000
redata: DM Tolerance for SCF             =     0.000100
redata: Require (free) Energy convergence in SCF =     F
redata: DM (free)Energy tolerance for SCF =     0.000010 eV
redata: Require Harris convergence for SCF =     F
redata: DM Harris energy tolerance for SCF =     0.000010 eV
redata: Using Saved Data (generic)   =     F
redata: Use continuation files for DM    =     F
redata: Neglect nonoverlap interactions  =     F
redata: Method of Calculation            =     QETSc
redata: Fix the spin of the system       =     F
redata: Dynamics option                  =     CG coord. optimization
redata: Variable cell                    =     F
redata: Use continuation files for CG    =     F
redata: Max atomic displ per move        =     0.1890  Bohr
redata: Maximum number of CG moves       =       50
redata: Force tolerance                  =     0.0016  Ry/Bohr
redata: ***********************************************************************
Total number of electrons:   384.000000
Total ionic charge:   384.000000

* ProcessorY, Blocksize:    4  46


* Orbital distribution balance (max,min):    46    46

 Kpoints in:  1 . Kpoints trimmed:  1

siesta: k-grid: Number of k-points =     1
siesta: k-grid: Cutoff (effective) =    10.000 Ang
siesta: k-grid: Supercell and displacements
siesta: k-grid:    1   0   0      0.000
siesta: k-grid:    0   1   0      0.000
siesta: k-grid:    0   0   1      0.000

                     ====================================
                        Begin CG opt. move =      0
                     ====================================

outcell: Unit cell vectors (Ang):
       20.000000    0.000000    0.000000
        0.000000   20.000000    0.000000
        0.000000    0.000000   82.304000

outcell: Cell vector modules (Ang)   :   20.000000   20.000000   82.304000
outcell: Cell angles (23,13,12) (deg):     90.0000     90.0000     90.0000
outcell: Cell volume (Ang**3)        :  32921.6000
New_DM. Step:     1
Initializing Density Matrix...
New grid distribution:   1
           1       1:   64    1:   16    1:   32
           2       1:   64    1:   16   33:   64
           3       1:   64    1:   16   65:   95
           4       1:   64    1:   16   96:  126
           5       1:   64    1:   16  127:  157
           6       1:   64    1:   16  158:  188
           7       1:   64    1:   16  189:  219
           8       1:   64    1:   16  220:  250
           9       1:   64   17:   32    1:   32
          10       1:   64   17:   32   33:   64
          11       1:   64   17:   32   65:   95
          12       1:   64   17:   32   96:  126
          13       1:   64   17:   32  127:  157
          14       1:   64   17:   32  158:  188
          15       1:   64   17:   32  189:  219
          16       1:   64   17:   32  220:  250
          17       1:   64   33:   48    1:   32
          18       1:   64   33:   48   33:   64
          19       1:   64   33:   48   65:   95
          20       1:   64   33:   48   96:  126
          21       1:   64   33:   48  127:  157
          22       1:   64   33:   48  158:  188
          23       1:   64   33:   48  189:  219
          24       1:   64   33:   48  220:  250
          25       1:   64   49:   64    1:   32
          26       1:   64   49:   64   33:   64
          27       1:   64   49:   64   65:   95
          28       1:   64   49:   64   96:  126
          29       1:   64   49:   64  127:  157
          30       1:   64   49:   64  158:  188
          31       1:   64   49:   64  189:  219
          32       1:   64   49:   64  220:  250

InitMesh: MESH =   128 x   128 x   500 =     8192000
InitMesh: (bp) =    64 x    64 x   250 =     1024000
InitMesh: Mesh cutoff (required, used) =   100.000   102.000 Ry
ExtMesh (bp) on 0 =   100 x    52 x    64 =      332800
New grid distribution:   2
           1       8:   64    1:    7    1:   32
           2       1:    7    1:    7  126:  157
           3       8:   64    1:    7   95:  125
           4       8:   64    8:   64   95:  125
           5       8:   64    1:    7  126:  157
           6       8:   64    1:    7   64:   94
           7       1:    7    1:    7    1:   32
           8       8:   64    8:   64  220:  250
           9       8:   64    1:    7  158:  188
          10       8:   64    8:   64   32:   63
          11       1:    7    8:   64   64:   94
          12       1:    7    1:    7   95:  125
          13       1:    7    8:   64  126:  156
          14       8:   64    8:   64  157:  188
          15       1:    7    8:   64  189:  219
          16       1:    7    1:    7   33:   63
          17       1:    7    8:   64    1:   31
          18       1:    7    8:   64   32:   63
          19       8:   64    8:   64   64:   94
          20       1:    7    1:    7   64:   94
          21       8:   64    8:   64  126:  156
          22       1:    7    8:   64  157:  188
          23       8:   64    1:    7  220:  250
          24       1:    7    1:    7  220:  250
          25       8:   64    8:   64    1:   31
          26       8:   64    1:    7  189:  219
          27       1:    7    1:    7  189:  219
          28       1:    7    8:   64   95:  125
          29       8:   64    1:    7   33:   63
          30       1:    7    1:    7  158:  188
          31       8:   64    8:   64  189:  219
          32       1:    7    8:   64  220:  250
New grid distribution:   3
           1      39:   64   13:   64    1:   31
           2       1:   11    1:   12  219:  250
           3      12:   64    1:   12   94:  125
           4       1:   36   13:   64   95:  125
           5      39:   64   13:   64  126:  156
           6       1:   11    1:   12   94:  125
           7      12:   64    1:   12  219:  250
           8       1:   36   13:   64  220:  250
           9       1:   38   13:   64    1:   31
          10      12:   64    1:   12   63:   93
          11      37:   64   13:   64   63:   94
          12       1:   11    1:   12   32:   62
          13       1:   38   13:   64  126:  156
          14      12:   64    1:   12    1:   31
          15      37:   64   13:   64  188:  219
          16       1:   11    1:   12   63:   93
          17      12:   64    1:   12  188:  218
          18       1:   38   13:   64   32:   62
          19       1:   11    1:   12    1:   31
          20      37:   64   13:   64   95:  125
          21      12:   64    1:   12  157:  187
          22       1:   38   13:   64  157:  187
          23       1:   11    1:   12  157:  187
          24      37:   64   13:   64  220:  250
          25      12:   64    1:   12  126:  156
          26      39:   64   13:   64   32:   62
          27       1:   36   13:   64   63:   94
          28       1:   11    1:   12  188:  218
          29      12:   64    1:   12   32:   62
          30      39:   64   13:   64  157:  187
          31       1:   36   13:   64  188:  219
          32       1:   11    1:   12  126:  156
Setting up quadratic distribution...
ExtMesh (bp) on 0 =    93 x    43 x    64 =      255936
PhiOnMesh: Number of (b)points on node 0 =                12768
PhiOnMesh: nlist on node 0 =                99771
QETSC: Last update           = Dec 15, 2016
QETSC: Number of ranks       =          32
QETSC: Number of slices      =          32
QETSC: Number of ranks/slice =           1
QETSC: Number of evals/slice =   6.00
QETSC: Number of req. evals  =         192
QETSC: Number of rows (all)  =        1472
QETSC: Number of rows (max)  =          46
QETSC: Number of rows (min)  =          46
QETSC: Density option        =           0
QETSC: Bin type given        =           7
QETSC: Inertia type          =           1
QETSC: Infinity type         =           2
QETSC: Write option          =           1
QETSC: Bin buffer given      =   0.10
QETSC: Diff thresh           =   0.02
QETSC: Number of nonzeros    =      304704
QETSC: Nonzero % (all)       =  14.06
QETSC: Nonzero % (max)       =  14.06
QETSC: Nonzero % (min)       =  14.06
 QETSC: Shifts, inertias         =
      -INF     0
    -2.300     0
    -2.226     0
    -2.152     0
    -2.077     0
    -2.003     0
    -1.929     0
    -1.855     0
    -1.781     0
    -1.706     0
    -1.632    13
    -1.558    21
    -1.484    27
    -1.410    31
    -1.335    37
    -1.261    41
    -1.187    64
    -1.113    64
    -1.039    75
    -0.965    95
    -0.890   115
    -0.816   135
    -0.742   178
    -0.668   192
    -0.594   192
    -0.519   192
    -0.445   192
    -0.371   192
    -0.297   192
    -0.223   192
    -0.148   192
    -0.074   192
     0.000   192
 QETSc: Custers,iter,crange,npcmax,trial 1 0.295559812695109260E-01 12 7
-1.6779156327543423E+00
-1.6436724565756822E+00
-1.6137096774193547E+00
-1.5766129032258063E+00
-1.5456989247311825E+00
-1.5086021505376341E+00
-1.4838709677419353E+00
-1.4467741935483871E+00
-1.4096774193548387E+00
-1.3725806451612903E+00
-1.3354838709677419E+00
-1.2983870967741935E+00
-1.2516129032258063E+00
-1.2193548387096773E+00
-1.1903225806451612E+00
-1.0859237536656889E+00
-1.0521994134897359E+00
-1.0164516129032257E+00
-9.8677419354838691E-01
-9.5709677419354822E-01
-9.2741935483870952E-01
-8.9774193548387093E-01
-8.6806451612903224E-01
-8.3838709677419343E-01
-8.0577644411102767E-01
-7.8507126781695413E-01
-7.6436609152288060E-01
-7.4366091522880706E-01
-7.1543778801843305E-01
-6.8364055299539173E-01
-6.7834101382488476E-01
 QETSC: Bins             =
                   -INF
-1.7064516129032257E+00
-1.6710669975186103E+00
-1.6376799007444167E+00
-1.6062903225806451E+00
-1.5704301075268816E+00
-1.5382795698924729E+00
-1.5036559139784944E+00
-1.4764516129032257E+00
-1.4393548387096775E+00
-1.4022580645161291E+00
-1.3651612903225807E+00
-1.3280645161290323E+00
-1.2890322580645162E+00
-1.2451612903225806E+00
-1.2135483870967740E+00
-1.1694428152492666E+00
-1.0791788856304982E+00
-1.0450498533724339E+00
-1.0105161290322580E+00
-9.8083870967741915E-01
-9.5116129032258045E-01
-9.2148387096774176E-01
-8.9180645161290317E-01
-8.6212903225806448E-01
-8.3186496624156026E-01
-8.0163540885221296E-01
-7.8093023255813943E-01
-7.6022505626406589E-01
-7.3801628978673228E-01
-7.0907834101382483E-01
-6.8258064516129036E-01
-6.6774193548387095E-01
QETSC: Started iter            1
QETSC: Bin type used         =           7
QETSC: Buffer used           =   0.0000000000000000E+00
QETSC: EPS interval          =      -INF,    -0.668
QETSC: Inertia type          =           1
SLEPc: EPSSolve time = 0 2.513e-06
SLEPc: EPSSolve time = 30 2.210e-06
SLEPc: EPSSolve time = 15 2.619e-06
SLEPc: EPSSolve time = 31 2.416e-06
SLEPc: EPSSolve time = 16 2.261e-06
SLEPc: EPSSolve time = 11 1.194e+00
SLEPc: EPSSolve time = 12 1.204e+00
SLEPc: EPSSolve time = 9 1.205e+00
SLEPc: EPSSolve time = 7 1.222e+00
SLEPc: EPSSolve time = 10 1.229e+00
SLEPc: EPSSolve time = 8 1.233e+00
SLEPc: EPSSolve time = 3 1.246e+00
SLEPc: EPSSolve time = 6 1.246e+00
SLEPc: EPSSolve time = 4 1.253e+00
SLEPc: EPSSolve time = 18 1.258e+00
SLEPc: EPSSolve time = 13 1.260e+00
SLEPc: EPSSolve time = 5 1.264e+00
SLEPc: EPSSolve time = 22 1.267e+00
SLEPc: EPSSolve time = 29 1.272e+00
SLEPc: EPSSolve time = 24 1.280e+00
SLEPc: EPSSolve time = 23 1.281e+00
SLEPc: EPSSolve time = 25 1.288e+00
SLEPc: EPSSolve time = 19 1.289e+00
SLEPc: EPSSolve time = 20 1.293e+00
SLEPc: EPSSolve time = 21 1.300e+00
SLEPc: EPSSolve time = 17 1.303e+00
SLEPc: EPSSolve time = 1 1.304e+00
SLEPc: EPSSolve time = 26 1.313e+00
SLEPc: EPSSolve time = 27 1.318e+00
SLEPc: EPSSolve time = 2 1.319e+00
SLEPc: EPSSolve time = 14 1.421e+00
SLEPc: EPSSolve time = 28 1.951e+00
 QETSC: Eigenvalues         =
-1.6792898009682866E+00
-1.6781294751269862E+00
-1.6781294751269851E+00
-1.6746505299674368E+00
-1.6746499992999535E+00
-1.6688576336678353E+00
-1.6688576336678262E+00
-1.6607614371023154E+00
-1.6607609794868841E+00
-1.6503754914023425E+00
-1.6503754914023401E+00
-1.6377295940554037E+00
-1.6377119801210305E+00
-1.6228243859140770E+00
-1.6228243859140761E+00
-1.6057238485297149E+00
-1.6057202689752645E+00
-1.5864600543451270E+00
-1.5864600543451184E+00
-1.5650980815261513E+00
-1.5650976947078787E+00
-1.5417122890803259E+00
-1.5417122890803254E+00
-1.5164053129188964E+00
-1.5164006733067694E+00
-1.4893014430982574E+00
-1.4893014430982487E+00
-1.4605859526477043E+00
-1.4605823237560212E+00
-1.4304934842993442E+00
-1.4304934842993324E+00
-1.3993708446339965E+00
-1.3993706328007054E+00
-1.3677079616495700E+00
-1.3677079616495647E+00
-1.3362274355464643E+00
-1.3362268698820123E+00
-1.3059871485161856E+00
-1.3059871485161783E+00
-1.2784800720487006E+00
-1.2784754197941908E+00
-1.2555463253084675E+00
-1.2555463253084576E+00
-1.2470904146232653E+00
-1.2464447289490579E+00
-1.2464447289490534E+00
-1.2445511329937018E+00
-1.2445490155309513E+00
-1.2415397679310993E+00
-1.2415397679310911E+00
-1.2388873551661896E+00
-1.2388868415230487E+00
-1.2376603580875813E+00
-1.2376595314609582E+00
-1.2333110550985875E+00
-1.2333110550985718E+00
-1.2291398955563981E+00
-1.2291398955563908E+00
-1.2291355728969702E+00
-1.2291010883131350E+00
-1.2260345857478083E+00
-1.2260345857477928E+00
-1.2254460204094908E+00
-1.2254438109527266E+00
-1.0713228956673095E+00
-1.0702317714421359E+00
-1.0702317714421343E+00
-1.0669667197650023E+00
-1.0669666263855944E+00
-1.0615526824107393E+00
-1.0615526824107344E+00
-1.0540327137389911E+00
-1.0540322222396827E+00
-1.0444675933960659E+00
-1.0444675933960592E+00
-1.0329674555826664E+00
-1.0329131096866688E+00
-1.0195559391055464E+00
-1.0195559391055373E+00
-1.0044460043778609E+00
-1.0044458070891167E+00
-9.8777067184110878E-01
-9.8777067184109579E-01
-9.8643241425736550E-01
-9.8643241425735817E-01
-9.8637206098421593E-01
-9.8636866725041661E-01
-9.7926084190890861E-01
-9.7926084190877083E-01
-9.7781029778960504E-01
-9.7780937258134459E-01
-9.6972320410326351E-01
-9.6972268769337666E-01
-9.6698897826479902E-01
-9.6698654261678929E-01
-9.6003046783944246E-01
-9.6003046783942692E-01
-9.5115754962961419E-01
-9.5115754962958510E-01
-9.5053350911691381E-01
-9.5053350911689616E-01
-9.3426065352418286E-01
-9.3426041173864305E-01
-9.3301559336644413E-01
-9.3301458918294133E-01
-9.3047065682144570E-01
-9.3046975926719500E-01
-9.1352797951733744E-01
-9.1352797951733167E-01
-9.0984309357161308E-01
-9.0984309357159887E-01
-9.0274421172667296E-01
-9.0274421172666142E-01
-8.9348463382106824E-01
-8.9347944532042711E-01
-8.8900589749397363E-01
-8.8899887660542509E-01
-8.7354543096118498E-01
-8.7354543096116999E-01
-8.6833425672696618E-01
-8.6833425672695597E-01
-8.6804690445349608E-01
-8.6789137554828055E-01
-8.5430680711523066E-01
-8.5429329425991318E-01
-8.4825098361628837E-01
-8.4825087536708843E-01
-8.3624734800087364E-01
-8.3624734800086520E-01
-8.3229911840549231E-01
-8.3229911840546922E-01
-8.2917381577900218E-01
-8.2917381577897775E-01
-8.1979787362874623E-01
-8.1979723832521290E-01
-8.1151518046835269E-01
-8.1150285950130752E-01
-8.0525104093297228E-01
-8.0525104093294797E-01
-7.9801350807096050E-01
-7.9801321300480776E-01
-7.9561640395119804E-01
-7.9561640395118716E-01
-7.9278399810972289E-01
-7.9277948573010781E-01
-7.8243170068136125E-01
-7.8243170068134482E-01
-7.8177966912185703E-01
-7.8177261011073085E-01
-7.7416375497122514E-01
-7.7407952175646166E-01
-7.7015911279330007E-01
-7.7015911279329485E-01
-7.6767858036613290E-01
-7.6767858036611925E-01
-7.6745110280257756E-01
-7.6745110280256323E-01
-7.6287234944997551E-01
-7.6287197653902905E-01
-7.6080881789347377E-01
-7.6080831886204592E-01
-7.5945541382464166E-01
-7.5945541382462645E-01
-7.5720037474306545E-01
-7.5719955580734521E-01
-7.5592428903273567E-01
-7.5592428903273201E-01
-7.5551233467991141E-01
-7.5363839845198644E-01
-7.5363839845197711E-01
-7.4845001194265670E-01
-7.4844835303847224E-01
-7.4495779040350074E-01
-7.4495779040349641E-01
-7.4305858074291087E-01
-7.4305801850383013E-01
-7.4289389472800504E-01
-7.4276695911785873E-01
-7.4172819349605557E-01
-7.4172524935725470E-01
-7.4172524935725304E-01
-7.4165906361804190E-01
-7.4165906361804168E-01
-7.4148721195138623E-01
-7.4148615763341119E-01
-7.4131738596698060E-01
-7.4131661462691734E-01
-7.4131545045249903E-01
-7.4131545045249736E-01
-7.2719724255031204E-01
-7.2719724255030782E-01
-7.2167947510264696E-01
QETSC: Iter time (min)       =     1   3.54
QETSC: Iter time (max)       =     1   3.54
QETSC: Iter time (avg)       =     1   3.54
QETSC: Num. of conv. evals   =     1         192
QETSC: Eigenvalue (1)        =     1  -1.6792898009682866E+00
QETSC: Eigenvalue (nocc)     =     1  -7.2167947510264696E-01
QETSC: Max differrence       =     1   1.6792898009682866E+00
QETSC: Safe iteration        =     1      F
QETSC: Finished iter         =           1
 *****************************************************************
QETSC: SCF iter time=   3.610

siesta: Program's energy decomposition (eV):
siesta: Ebs     =     -5486.406630
siesta: Eions   =     18757.508633
siesta: Ena     =      4025.680303
siesta: Ekin    =      7569.733501
siesta: Enl     =      -538.885265
siesta: DEna    =         0.000009
siesta: DUscf   =         0.000000
siesta: DUext   =         0.000000
siesta: Exc     =     -4016.481608
siesta: eta*DQ  =         0.000000
siesta: Emadel  =         0.000000
siesta: Emeta   =         0.000000
siesta: Emolmec =         0.000000
siesta: Ekinion =         0.000000
siesta: Eharris =    -11997.597793
siesta: Etot    =    -11717.461692
siesta: FreeEng =    -11717.461692
timer: Routine,Calls,Time,% =    IterSCF     1       5.800  26.30
 QETSC: Bins             =
                   -INF
-2.2999999999999998E+00
-2.2258064516129030E+00
-2.1516129032258062E+00
-2.0774193548387094E+00
-2.0032258064516126E+00
-1.9290322580645161E+00
-1.8548387096774193E+00
-1.7806451612903225E+00
-1.7064516129032257E+00
-1.6322580645161289E+00
-1.5580645161290321E+00
-1.4838709677419353E+00
-1.4096774193548387E+00
-1.3354838709677419E+00
-1.2612903225806451E+00
-1.1870967741935483E+00
-1.1129032258064515E+00
-1.0387096774193547E+00
-9.6451612903225792E-01
-8.9032258064516123E-01
-8.1612903225806444E-01
-7.4193548387096764E-01
-6.6774193548387095E-01
-5.9354838709677415E-01
-5.1935483870967736E-01
-4.4516129032258056E-01
-3.7096774193548382E-01
-2.9677419354838708E-01
-2.2258064516129028E-01
-1.4838709677419351E-01
-7.4193548387096742E-02
 2.7755575615628914E-17
QETSC: Started iter            2
QETSC: Bin type used         =           0
QETSC: Buffer used           =   1.6792898009682866E+00
QETSC: EPS interval          =      -INF,     0.000
QETSC: Inertia type          =           1
SLEPc: EPSSolve time = 12 2.466e-06
SLEPc: EPSSolve time = 21 2.059e-06
SLEPc: EPSSolve time = 8 2.435e-06
SLEPc: EPSSolve time = 29 2.406e-06
SLEPc: EPSSolve time = 3 2.449e-06
SLEPc: EPSSolve time = 30 2.389e-06
SLEPc: EPSSolve time = 7 2.447e-06
SLEPc: EPSSolve time = 31 2.380e-06
SLEPc: EPSSolve time = 5 2.384e-06
SLEPc: EPSSolve time = 11 2.439e-06
SLEPc: EPSSolve time = 1 2.421e-06
SLEPc: EPSSolve time = 2 2.481e-06
SLEPc: EPSSolve time = 10 2.401e-06
SLEPc: EPSSolve time = 9 2.438e-06
SLEPc: EPSSolve time = 13 2.676e-06
SLEPc: EPSSolve time = 6 2.442e-06
SLEPc: EPSSolve time = 0 2.428e-06
SLEPc: EPSSolve time = 4 2.436e-06
SLEPc: EPSSolve time = 18 1.214e+00
SLEPc: EPSSolve time = 14 1.219e+00
SLEPc: EPSSolve time = 15 1.233e+00
SLEPc: EPSSolve time = 16 1.241e+00
SLEPc: EPSSolve time = 17 1.244e+00
SLEPc: EPSSolve time = 19 1.248e+00
SLEPc: EPSSolve time = 27 1.259e+00
SLEPc: EPSSolve time = 28 1.275e+00
SLEPc: EPSSolve time = 22 1.355e+00
SLEPc: EPSSolve time = 20 1.457e+00
SLEPc: EPSSolve time = 23 1.688e+00
SLEPc: EPSSolve time = 24 1.846e+00
SLEPc: EPSSolve time = 26 3.400e+00
SLEPc: EPSSolve time = 25 3.815e+00
 QETSC: Eigenvalues         =
-1.2740833956464366E+00
-1.2728822067976322E+00
-1.2728822067818002E+00
-1.2692810696389962E+00
-1.2692797616727907E+00
-1.2632835650032408E+00
-1.2632835649999188E+00
-1.2549019477428689E+00
-1.2549012135205448E+00
-1.2441497172621014E+00
-1.2441497172612506E+00
-1.2310614118712448E+00
-1.2310381336281437E+00
-1.2156316373781726E+00
-1.2156316373780882E+00
-1.1979374945853580E+00
-1.1979329270039116E+00
-1.1780129482222490E+00
-1.1780129482222066E+00
-1.1559339920307492E+00
-1.1559328957303392E+00
-1.1317865792138100E+00
-1.1317865792136861E+00
-1.1057002572265513E+00
-1.1056822825234109E+00
-1.0778074364787416E+00
-1.0778074364786794E+00
-1.0483567735695851E+00
-1.0483529625311745E+00
-1.0176434516652224E+00
-1.0176434516651449E+00
-9.8612194888863725E-01
-9.8612189879491985E-01
-9.5445514177877921E-01
-9.5445514177868340E-01
-9.2363798894941851E-01
-9.2363749804955675E-01
-8.9512427244838955E-01
-8.9512427244825310E-01
-8.7622787018932502E-01
-8.7542062554272437E-01
-8.7542062552818567E-01
-8.7303561080935310E-01
-8.7303186840631963E-01
-8.7085505523688056E-01
-8.7085189890873338E-01
-8.6917550079346839E-01
-8.6917550079076433E-01
-8.6404444838378092E-01
-8.6404417395621980E-01
-8.5796045162759882E-01
-8.5796045162696910E-01
-8.5286720385986370E-01
-8.5286720385965520E-01
-8.5142565582699303E-01
-8.5141808914948358E-01
-8.4519400755256946E-01
-8.4519400755246332E-01
-8.4234691724337996E-01
-8.4234679100656462E-01
-8.4043500470659738E-01
-8.4043410849125455E-01
-8.3880161050140267E-01
-8.3880161050133240E-01
-7.2730025045074520E-01
-7.2613737629923203E-01
-7.2613737628475206E-01
-7.2265815016301294E-01
-7.2265651883838922E-01
-7.1688621327009550E-01
-7.1688621326733415E-01
-7.0886878641714890E-01
-7.0886853017433127E-01
-6.9866967236546995E-01
-6.9866967236475297E-01
-6.8642432365744599E-01
-6.8632966262413575E-01
-6.7210494433524892E-01
-6.7210494433514567E-01
-6.5599876228750198E-01
-6.5599801871338603E-01
-6.3823749097909965E-01
-6.3823749097905347E-01
-6.1904396525282868E-01
-6.1904377054880622E-01
-5.9868686295636508E-01
-5.9868686295622053E-01
-5.8647024952295412E-01
-5.8646334975596559E-01
-5.8278866298857190E-01
-5.8278866298851517E-01
-5.8118546039742636E-01
-5.8118546039733820E-01
-5.7748854653255555E-01
-5.7747619454342025E-01
-5.7231010130543469E-01
-5.7230898783465112E-01
-5.6576742551420578E-01
-5.6576652633769109E-01
-5.5716945569803755E-01
-5.5716945569799603E-01
-5.5582007519866550E-01
-5.5582007519855503E-01
-5.4080667164341301E-01
-5.4080667164335416E-01
-5.3911197020246460E-01
-5.3911092027932828E-01
-5.3413308999776299E-01
-5.3412603406117531E-01
-5.1949674663678092E-01
-5.1949674663673617E-01
-5.1290252262413705E-01
-5.1290252262400648E-01
-5.0835365362227369E-01
-5.0835312839875646E-01
-4.9942402639671624E-01
-4.9941862679822024E-01
-4.9266855673833271E-01
-4.9266841447018239E-01
-4.7980584570945584E-01
-4.7980584570938228E-01
-4.7396886157346363E-01
-4.7396886157333373E-01
-4.7088867386219396E-01
-4.7088867386211186E-01
-4.6143615156778106E-01
-4.6143302177226841E-01
-4.5732166762048138E-01
-4.5730912097907800E-01
-4.4495178264166796E-01
-4.4495178264156532E-01
-4.4313683317299257E-01
-4.4313683317298747E-01
-4.3172614017266880E-01
-4.3172017373805971E-01
-4.3084098782379909E-01
-4.3083068229484178E-01
-4.3082953377813549E-01
-4.3063038578987012E-01
-4.2510485315807489E-01
-4.2471430129674581E-01
-4.2471430128304044E-01
-4.2357666866733490E-01
-4.2357384363394535E-01
-4.2317988498532005E-01
-4.2317988498512360E-01
-4.2180642541913138E-01
-4.2180642541671765E-01
-4.1960204797680012E-01
-4.1960088394280631E-01
-4.1934466007877685E-01
-4.1934466007873589E-01
-4.1741781905734487E-01
-4.1741780756637409E-01
-4.1723548924284565E-01
-4.1723548924174086E-01
-4.1514130225614543E-01
-4.1497847747918487E-01
-4.1414691068028520E-01
-4.1414691068019771E-01
-4.1350681069130235E-01
-4.1350681069064960E-01
-4.1310083801825476E-01
-4.1309742502787739E-01
-4.1038746897151335E-01
-4.1038367159022426E-01
-4.0405012674684937E-01
-4.0405012674663265E-01
-3.9985054268809367E-01
-3.9974111608326113E-01
-3.9722004802071953E-01
-3.9722004802020311E-01
-3.9586212873137167E-01
-3.9586198184788646E-01
-3.9529109132224977E-01
-3.9529109131908413E-01
-3.9519658426452037E-01
-3.9517119178984322E-01
-3.9517119177497806E-01
-3.9515015867805103E-01
-3.9514784449299595E-01
-3.9003292562424091E-01
-3.9003292562358871E-01
-3.5094735220780887E-01
-3.5094700304018467E-01
-3.1589468535326393E-01
-3.1589468535009446E-01
-2.8763772060738585E-01
-2.8763656904466595E-01
-2.6907177639153596E-01
-2.6907177637504237E-01
-2.6256977397917819E-01
QETSC: Iter time (min)       =     2   4.64
QETSC: Iter time (max)       =     2   4.64
QETSC: Iter time (avg)       =     2   4.64
QETSC: Num. of conv. evals   =     2         192
QETSC: Eigenvalue (1)        =     2  -1.2740833956464366E+00
QETSC: Eigenvalue (nocc)     =     2  -2.6256977397917819E-01
QETSC: Max differrence       =     2   4.5910970112346877E-01
QETSC: Safe iteration        =     2      F
QETSC: Finished iter         =           2
 *****************************************************************
QETSC: SCF iter time=   4.650
 QETSC: Bins             =
                   -INF
-2.2999999999999998E+00
-2.2258064516129030E+00
-2.1516129032258062E+00
-2.0774193548387094E+00
-2.0032258064516126E+00
-1.9290322580645161E+00
-1.8548387096774193E+00
-1.7806451612903225E+00
-1.7064516129032257E+00
-1.6322580645161289E+00
-1.5580645161290321E+00
-1.4838709677419353E+00
-1.4096774193548387E+00
-1.3354838709677419E+00
-1.2612903225806451E+00
-1.1870967741935483E+00
-1.1129032258064515E+00
-1.0387096774193547E+00
-9.6451612903225792E-01
-8.9032258064516123E-01
-8.1612903225806444E-01
-7.4193548387096764E-01
-6.6774193548387095E-01
-5.9354838709677415E-01
-5.1935483870967736E-01
-4.4516129032258056E-01
-3.7096774193548382E-01
-2.9677419354838708E-01
-2.2258064516129028E-01
-1.4838709677419351E-01
-7.4193548387096742E-02
 2.7755575615628914E-17
QETSC: Started iter            3
QETSC: Bin type used         =           0
QETSC: Buffer used           =   4.5910970112346877E-01
QETSC: EPS interval          =      -INF,     0.000
QETSC: Inertia type          =           1
SLEPc: EPSSolve time = 3 2.335e-06
SLEPc: EPSSolve time = 26 2.605e-06
SLEPc: EPSSolve time = 5 2.151e-06
SLEPc: EPSSolve time = 29 2.363e-06
SLEPc: EPSSolve time = 7 2.361e-06
SLEPc: EPSSolve time = 19 1.995e-06
SLEPc: EPSSolve time = 2 2.434e-06
SLEPc: EPSSolve time = 28 2.326e-06
SLEPc: EPSSolve time = 6 2.387e-06
SLEPc: EPSSolve time = 27 2.301e-06
SLEPc: EPSSolve time = 9 2.333e-06
SLEPc: EPSSolve time = 30 2.300e-06
SLEPc: EPSSolve time = 11 2.307e-06
SLEPc: EPSSolve time = 31 2.316e-06
SLEPc: EPSSolve time = 8 2.360e-06
SLEPc: EPSSolve time = 10 2.300e-06
SLEPc: EPSSolve time = 4 1.965e-06
SLEPc: EPSSolve time = 0 2.324e-06
SLEPc: EPSSolve time = 1 2.281e-06
SLEPc: EPSSolve time = 15 1.169e+00
SLEPc: EPSSolve time = 14 1.199e+00
SLEPc: EPSSolve time = 17 1.224e+00
SLEPc: EPSSolve time = 12 1.225e+00
SLEPc: EPSSolve time = 16 1.236e+00
SLEPc: EPSSolve time = 13 1.246e+00
SLEPc: EPSSolve time = 20 1.317e+00
SLEPc: EPSSolve time = 18 1.467e+00
SLEPc: EPSSolve time = 21 1.608e+00
SLEPc: EPSSolve time = 22 2.108e+00
SLEPc: EPSSolve time = 25 2.481e+00
SLEPc: EPSSolve time = 23 2.932e+00
SLEPc: EPSSolve time = 24 3.002e+00
 QETSC: Eigenvalues         =
-1.4283282351048818E+00
-1.4271399230881385E+00
-1.4271399230807176E+00
-1.4235769892448999E+00
-1.4235760616686666E+00
-1.4176428326646957E+00
-1.4176428326635773E+00
-1.4093475167830598E+00
-1.4093472514454477E+00
-1.3987032273552071E+00
-1.3987032273549982E+00
-1.3857457494586887E+00
-1.3857119869550729E+00
-1.3704495236450032E+00
-1.3704495236449437E+00
-1.3529005791860029E+00
-1.3528966042264448E+00
-1.3331195858787812E+00
-1.3331195858787608E+00
-1.3111692926454142E+00
-1.3111684740066138E+00
-1.2871195522996801E+00
-1.2871195522996426E+00
-1.2610738248562594E+00
-1.2610603116006414E+00
-1.2331380744447955E+00
-1.2331380744447578E+00
-1.2035060829972637E+00
-1.2035022211644546E+00
-1.1724039846273830E+00
-1.1724039846273584E+00
-1.1401798053467984E+00
-1.1401796343476547E+00
-1.1073371149467022E+00
-1.1073371149466711E+00
-1.0746435070531095E+00
-1.0746427960152916E+00
-1.0432701539122384E+00
-1.0432701539121656E+00
-1.0149457768055343E+00
-1.0149451869376012E+00
-9.9702101989160508E-01
-9.9625915776193230E-01
-9.9625915775472074E-01
-9.9401349402203709E-01
-9.9400988930292200E-01
-9.9189175778668481E-01
-9.9189175778661542E-01
-9.9039972626296147E-01
-9.9039972626195971E-01
-9.8564797658224901E-01
-9.8564785345777572E-01
-9.8012661225193176E-01
-9.8012661225175957E-01
-9.7612609046897436E-01
-9.7612581310955704E-01
-9.7442829074764514E-01
-9.7442549075295326E-01
-9.6948242889685299E-01
-9.6948242889680203E-01
-9.6819424677304866E-01
-9.6819424677299204E-01
-9.6673080420978785E-01
-9.6672996893717555E-01
-8.4509189855440670E-01
-8.4394456820075725E-01
-8.4394456819359742E-01
-8.4051153251717980E-01
-8.4051011780375706E-01
-8.3481571972144852E-01
-8.3481571972044133E-01
-8.2690203327774514E-01
-8.2690202850641337E-01
-8.1683184668666109E-01
-8.1683184668645392E-01
-8.0473209808878332E-01
-8.0464519224849207E-01
-7.9058063448304516E-01
-7.9058063448303095E-01
-7.7464458796891222E-01
-7.7464377599687373E-01
-7.5704794149320476E-01
-7.5704794149317134E-01
-7.3899804068568709E-01
-7.3899129263859897E-01
-7.3893688308114303E-01
-7.3893688308107008E-01
-7.3799883766467622E-01
-7.3799882572798936E-01
-7.3120270372182483E-01
-7.3120270372181506E-01
-7.2902789136911328E-01
-7.2902677656840820E-01
-7.1786578931637945E-01
-7.1786377649596245E-01
-7.1774192808991089E-01
-7.1774192808986659E-01
-7.0885604978428662E-01
-7.0885604978423777E-01
-7.0087661259675904E-01
-7.0087661259672684E-01
-6.9658246238331267E-01
-6.9657333428734625E-01
-6.8165770395555059E-01
-6.8165671878618950E-01
-6.8005669840872729E-01
-6.8005662199709849E-01
-6.7485175344148607E-01
-6.7485175344141524E-01
-6.6128940120127722E-01
-6.6128940120125157E-01
-6.5296649252233707E-01
-6.5295965176814419E-01
-6.4532896888536040E-01
-6.4532896888534697E-01
-6.4065353041451467E-01
-6.4064865263905835E-01
-6.3135996961511220E-01
-6.3135996961506113E-01
-6.2049278828604637E-01
-6.2049278828598664E-01
-6.1052824216021329E-01
-6.1052810051821282E-01
-6.0746253560283425E-01
-6.0728386704261872E-01
-6.0147043944051004E-01
-6.0146488763924877E-01
-5.9096970755133105E-01
-5.9096970755128819E-01
-5.8412675602478326E-01
-5.8412675602475017E-01
-5.7317566153819899E-01
-5.7316360839308811E-01
-5.6889375671820885E-01
-5.6889310015209660E-01
-5.6860736251789290E-01
-5.6860736251775201E-01
-5.5755215506543565E-01
-5.5755215506540556E-01
-5.5603188878803089E-01
-5.5603188878801180E-01
-5.4562869764426924E-01
-5.4562412013536898E-01
-5.4443368634576683E-01
-5.4443091114670528E-01
-5.3758412104013376E-01
-5.3758412104000941E-01
-5.3397415970768181E-01
-5.3397415970762030E-01
-5.3171550155542746E-01
-5.3161340552371816E-01
-5.3133841604239307E-01
-5.3133822796298158E-01
-5.2753102382109573E-01
-5.2753102382097306E-01
-5.2616819724112096E-01
-5.2616809916408580E-01
-5.2480893836447018E-01
-5.2480876207465565E-01
-5.2313813490777028E-01
-5.2313813490671690E-01
-5.2222665466330909E-01
-5.2222401462063694E-01
-5.2188456113790871E-01
-5.2188456113075299E-01
-5.2186619400329282E-01
-5.2093641147978587E-01
-5.2083623122026657E-01
-5.2083623122017431E-01
-5.2080404729779572E-01
-5.2080404729072949E-01
-5.2021085463597749E-01
-5.2020875609915096E-01
-5.1916674755703995E-01
-5.1916674755607406E-01
-5.1794743018887901E-01
-5.1794511146543487E-01
-5.1763727467198484E-01
-5.1763357413651789E-01
-5.1679008836252960E-01
-5.1679008836051565E-01
-5.1620650265120605E-01
-5.1620650264937784E-01
-5.1615223162238144E-01
-5.1599537408210117E-01
-4.9799619689568869E-01
-4.9799619689468350E-01
-4.7123318575719597E-01
-4.7123239271846118E-01
-4.5372848055184245E-01
-4.5372848054441822E-01
-4.4761609116159007E-01
QETSC: Iter time (min)       =     3   3.82
QETSC: Iter time (max)       =     3   3.82
QETSC: Iter time (avg)       =     3   3.82
QETSC: Num. of conv. evals   =     3         192
QETSC: Eigenvalue (1)        =     3  -1.4283282351048818E+00
QETSC: Eigenvalue (nocc)     =     3  -4.4761609116159007E-01
QETSC: Max differrence       =     3   1.8504631718241188E-01
QETSC: Safe iteration        =     3      F
QETSC: Finished iter         =           3
 *****************************************************************
QETSC: SCF iter time=   3.830
 QETSC: Bins             =
                   -INF
-2.2999999999999998E+00
-2.2258064516129030E+00
-2.1516129032258062E+00
-2.0774193548387094E+00
-2.0032258064516126E+00
-1.9290322580645161E+00
-1.8548387096774193E+00
-1.7806451612903225E+00
-1.7064516129032257E+00
-1.6322580645161289E+00
-1.5580645161290321E+00
-1.4838709677419353E+00
-1.4096774193548387E+00
-1.3354838709677419E+00
-1.2612903225806451E+00
-1.1870967741935483E+00
-1.1129032258064515E+00
-1.0387096774193547E+00
-9.6451612903225792E-01
-8.9032258064516123E-01
-8.1612903225806444E-01
-7.4193548387096764E-01
-6.6774193548387095E-01
-5.9354838709677415E-01
-5.1935483870967736E-01
-4.4516129032258056E-01
-3.7096774193548382E-01
-2.9677419354838708E-01
-2.2258064516129028E-01
-1.4838709677419351E-01
-7.4193548387096742E-02
 2.7755575615628914E-17
QETSC: Started iter            4
QETSC: Bin type used         =           0
QETSC: Buffer used           =   1.8504631718241188E-01
QETSC: EPS interval          =      -INF,     0.000
QETSC: Inertia type          =           1
SLEPc: EPSSolve time = 9 2.395e-06
SLEPc: EPSSolve time = 28 2.419e-06
SLEPc: EPSSolve time = 10 2.356e-06
SLEPc: EPSSolve time = 29 2.411e-06
SLEPc: EPSSolve time = 0 2.249e-06
SLEPc: EPSSolve time = 26 2.415e-06
SLEPc: EPSSolve time = 1 2.105e-06
SLEPc: EPSSolve time = 31 2.351e-06
SLEPc: EPSSolve time = 11 2.393e-06
SLEPc: EPSSolve time = 30 2.346e-06
SLEPc: EPSSolve time = 3 2.403e-06
SLEPc: EPSSolve time = 27 2.376e-06
SLEPc: EPSSolve time = 4 2.025e-06
SLEPc: EPSSolve time = 19 2.197e-06
SLEPc: EPSSolve time = 6 2.406e-06
SLEPc: EPSSolve time = 2 2.070e-06
SLEPc: EPSSolve time = 7 2.400e-06
SLEPc: EPSSolve time = 5 2.241e-06
SLEPc: EPSSolve time = 8 2.176e-06
SLEPc: EPSSolve time = 15 1.153e+00
SLEPc: EPSSolve time = 14 1.165e+00
SLEPc: EPSSolve time = 13 1.191e+00
SLEPc: EPSSolve time = 16 1.212e+00
SLEPc: EPSSolve time = 17 1.233e+00
SLEPc: EPSSolve time = 25 1.278e+00
SLEPc: EPSSolve time = 12 1.280e+00
SLEPc: EPSSolve time = 20 1.321e+00
SLEPc: EPSSolve time = 18 1.444e+00
SLEPc: EPSSolve time = 21 1.742e+00
SLEPc: EPSSolve time = 22 2.056e+00
SLEPc: EPSSolve time = 24 2.437e+00
SLEPc: EPSSolve time = 23 2.961e+00
 QETSC: Eigenvalues         =
-1.4626216750398762E+00
-1.4614363073563958E+00
-1.4614363073541190E+00
-1.4578820639005330E+00
-1.4578812528314058E+00
-1.4519622533704761E+00
-1.4519622533448753E+00
-1.4436863266393831E+00
-1.4436859758022349E+00
-1.4330656492631937E+00
-1.4330656492631275E+00
-1.4201344653252965E+00
-1.4201018585802327E+00
-1.4048673753375369E+00
-1.4048673753374763E+00
-1.3873464706372423E+00
-1.3873427142963386E+00
-1.3675904932319116E+00
-1.3675904932316589E+00
-1.3456580663622288E+00
-1.3456571776145962E+00
-1.3216138296273248E+00
-1.3216138296271696E+00
-1.2955534549260326E+00
-1.2955413319987341E+00
-1.2675748420556041E+00
-1.2675748420556014E+00
-1.2378552875133570E+00
-1.2378511977433475E+00
-1.2066000037056581E+00
-1.2066000037056268E+00
-1.1741256079319378E+00
-1.1741254367675822E+00
-1.1408878360471850E+00
-1.1408878360471555E+00
-1.1075844063732487E+00
-1.1075829489103739E+00
-1.0752911084133383E+00
-1.0752911084133125E+00
-1.0456458320190141E+00
-1.0456454065518408E+00
-1.0208790157260828E+00
-1.0208790157260101E+00
-1.0201272477791892E+00
-1.0193716381630309E+00
-1.0193716381605857E+00
-1.0171462746945472E+00
-1.0171427160369901E+00
-1.0135705661831580E+00
-1.0135705661589609E+00
-1.0088835444128681E+00
-1.0088833658794931E+00
-1.0034717435265770E+00
-1.0034717435265024E+00
-1.0032610459555611E+00
-1.0032607982866268E+00
-9.9796347171700750E-01
-9.9796287174992948E-01
-9.9375774284835761E-01
-9.9375774284809160E-01
-9.9336256815413893E-01
-9.9336256815406365E-01
-9.9123215741875359E-01
-9.9123131310496282E-01
-8.6780404394480859E-01
-8.6665733890008900E-01
-8.6665733889768615E-01
-8.6322600038629949E-01
-8.6322467239406009E-01
-8.5753267213164197E-01
-8.5753267210741013E-01
-8.4962146359668544E-01
-8.4962134762096331E-01
-8.3955255422952091E-01
-8.3955255422946085E-01
-8.2744902345264248E-01
-8.2736722908754967E-01
-8.1329432629291376E-01
-8.1329432629286036E-01
-7.9734534918621669E-01
-7.9734445107576501E-01
-7.7972519192095113E-01
-7.7972519192064327E-01
-7.7412203925007050E-01
-7.7412203925004464E-01
-7.7239980017810972E-01
-7.7239282131417086E-01
-7.6616706659447953E-01
-7.6616602632757491E-01
-7.6323510406960227E-01
-7.6323510406959716E-01
-7.6063488655013389E-01
-7.6063477979658123E-01
-7.4894573667286979E-01
-7.4894330402783493E-01
-7.4769589476459897E-01
-7.4769589476451703E-01
-7.4032254369225425E-01
-7.4032254369210915E-01
-7.3132026936466088E-01
-7.3132026936465344E-01
-7.2012856140955117E-01
-7.2012853063858351E-01
-7.1907730591324959E-01
-7.1906932658184197E-01
-7.1167790449743118E-01
-7.1167691351843865E-01
-6.9722794520857700E-01
-6.9722794520855358E-01
-6.9101715112108120E-01
-6.9101715112105777E-01
-6.8623330637951940E-01
-6.8623330637948055E-01
-6.7518070022605736E-01
-6.7517402940190652E-01
-6.7015917074041309E-01
-6.7015458005191531E-01
-6.5336067592138214E-01
-6.5336067592132907E-01
-6.4980193259722929E-01
-6.4980193259721630E-01
-6.4896105573612728E-01
-6.4879110991325573E-01
-6.3225513465838534E-01
-6.3225499222296822E-01
-6.3057499655485816E-01
-6.3056868451224957E-01
-6.1299419311848380E-01
-6.1299419311837067E-01
-6.1235593865847870E-01
-6.1235593865841620E-01
-6.1059807945613065E-01
-6.1059807945604749E-01
-5.9747981089393498E-01
-5.9747904896566240E-01
-5.9415141005009220E-01
-5.9413967873546469E-01
-5.8429002610158809E-01
-5.8429002610141345E-01
-5.7805104113545713E-01
-5.7805104113543571E-01
-5.7376898562134604E-01
-5.7376885735121830E-01
-5.7352140790673511E-01
-5.7351682943103721E-01
-5.6509086133331010E-01
-5.6509086133325082E-01
-5.6439829925020013E-01
-5.6439663059555301E-01
-5.5883379798037625E-01
-5.5873810379464539E-01
-5.5428883158054010E-01
-5.5428883158049724E-01
-5.5336585466831589E-01
-5.5336585466818611E-01
-5.5124112166971750E-01
-5.5124098810186917E-01
-5.4929078056095015E-01
-5.4929078053780589E-01
-5.4813403285315387E-01
-5.4813183329149251E-01
-5.4753487122600397E-01
-5.4753487122361200E-01
-5.4735187052373779E-01
-5.4496854213818680E-01
-5.4496853704010628E-01
-5.4083430061231119E-01
-5.4083430058955384E-01
-5.3905031622758715E-01
-5.3905031622716415E-01
-5.3673517197521947E-01
-5.3651190736431564E-01
-5.3651190736183119E-01
-5.3588212661070567E-01
-5.3587960437573767E-01
-5.3531770475973128E-01
-5.3531509993157456E-01
-5.3495848308807847E-01
-5.3495848306502525E-01
-5.3393862112382773E-01
-5.3393757396477370E-01
-5.3338610346670956E-01
-5.3338610346546278E-01
-5.3307976768495524E-01
-5.3307976768378529E-01
-5.3285024285582172E-01
-5.3269795981579704E-01
-5.1442462430154512E-01
-5.1442388309028420E-01
-4.9716964432285304E-01
-4.9716964432072136E-01
-4.9114866082330888E-01
QETSC: Iter time (min)       =     4   3.78
QETSC: Iter time (max)       =     4   3.78
QETSC: Iter time (avg)       =     4   3.78
QETSC: Num. of conv. evals   =     4         192
QETSC: Eigenvalue (1)        =     4  -1.4626216750398762E+00
QETSC: Eigenvalue (nocc)     =     4  -4.9114866082330888E-01
QETSC: Max differrence       =     4   4.3532569661718812E-02
QETSC: Safe iteration        =     4      F
QETSC: Finished iter         =           4
 *****************************************************************
QETSC: SCF iter time=   3.790
 QETSC: Bins             =
                   -INF
-2.2999999999999998E+00
-2.2258064516129030E+00
-2.1516129032258062E+00
-2.0774193548387094E+00
-2.0032258064516126E+00
-1.9290322580645161E+00
-1.8548387096774193E+00
-1.7806451612903225E+00
-1.7064516129032257E+00
-1.6322580645161289E+00
-1.5580645161290321E+00
-1.4838709677419353E+00
-1.4096774193548387E+00
-1.3354838709677419E+00
-1.2612903225806451E+00
-1.1870967741935483E+00
-1.1129032258064515E+00
-1.0387096774193547E+00
-9.6451612903225792E-01
-8.9032258064516123E-01
-8.1612903225806444E-01
-7.4193548387096764E-01
-6.6774193548387095E-01
-5.9354838709677415E-01
-5.1935483870967736E-01
-4.4516129032258056E-01
-3.7096774193548382E-01
-2.9677419354838708E-01
-2.2258064516129028E-01
-1.4838709677419351E-01
-7.4193548387096742E-02
 2.7755575615628914E-17
QETSC: Started iter            5
QETSC: Bin type used         =           0
QETSC: Buffer used           =   4.3532569661718812E-02
QETSC: EPS interval          =      -INF,     0.000
QETSC: Inertia type          =           1
SLEPc: EPSSolve time = 6 2.395e-06
SLEPc: EPSSolve time = 30 2.314e-06
SLEPc: EPSSolve time = 1 2.414e-06
SLEPc: EPSSolve time = 31 2.307e-06
SLEPc: EPSSolve time = 0 2.127e-06
SLEPc: EPSSolve time = 28 2.382e-06
SLEPc: EPSSolve time = 2 1.930e-06
SLEPc: EPSSolve time = 26 2.682e-06
SLEPc: EPSSolve time = 8 1.954e-06
SLEPc: EPSSolve time = 19 2.106e-06
SLEPc: EPSSolve time = 7 2.382e-06
SLEPc: EPSSolve time = 29 2.317e-06
SLEPc: EPSSolve time = 10 1.998e-06
SLEPc: EPSSolve time = 27 2.327e-06
SLEPc: EPSSolve time = 11 2.281e-06
SLEPc: EPSSolve time = 4 2.073e-06
SLEPc: EPSSolve time = 9 2.385e-06
SLEPc: EPSSolve time = 5 2.297e-06
SLEPc: EPSSolve time = 3 2.382e-06
SLEPc: EPSSolve time = 15 1.145e+00
SLEPc: EPSSolve time = 14 1.160e+00
SLEPc: EPSSolve time = 13 1.206e+00
SLEPc: EPSSolve time = 16 1.220e+00
SLEPc: EPSSolve time = 17 1.232e+00
SLEPc: EPSSolve time = 12 1.271e+00
SLEPc: EPSSolve time = 25 1.280e+00
SLEPc: EPSSolve time = 20 1.703e+00
SLEPc: EPSSolve time = 21 1.770e+00
SLEPc: EPSSolve time = 18 1.853e+00
SLEPc: EPSSolve time = 22 2.052e+00
SLEPc: EPSSolve time = 24 2.520e+00
SLEPc: EPSSolve time = 23 3.475e+00
 QETSC: Eigenvalues         =
-1.4630284668221909E+00
-1.4618436767871761E+00
-1.4618436767866256E+00
-1.4582912108881927E+00
-1.4582903538658669E+00
-1.4523743760324732E+00
-1.4523743760237979E+00
-1.4441027811723670E+00
-1.4441024902598603E+00
-1.4334880396376741E+00
-1.4334880396375336E+00
-1.4205634439315451E+00
-1.4205330786684389E+00
-1.4053073347864760E+00
-1.4053073347864282E+00
-1.3877988775653201E+00
-1.3877951785815874E+00
-1.3680586405986419E+00
-1.3680586405985968E+00
-1.3461459609049893E+00
-1.3461451061075722E+00
-1.3221266488097876E+00
-1.3221266488097305E+00
-1.2960976204371681E+00
-1.2960858641748791E+00
-1.2681593821123582E+00
-1.2681593821123507E+00
-1.2384915560751186E+00
-1.2384874540859088E+00
-1.2073036342976939E+00
-1.2073036342976782E+00
-1.1749182289942413E+00
-1.1749180718036738E+00
-1.1417998046299160E+00
-1.1417998046299100E+00
-1.1086583213759533E+00
-1.1086569431111570E+00
-1.0765851224229264E+00
-1.0765851224228926E+00
-1.0472304339868495E+00
-1.0472298934937831E+00
-1.0228905637345933E+00
-1.0228145027119859E+00
-1.0228145027119595E+00
-1.0221367907678514E+00
-1.0221367907671892E+00
-1.0199172694379637E+00
-1.0199136868101331E+00
-1.0163505401886426E+00
-1.0163505401788195E+00
-1.0116745082631642E+00
-1.0116743778668007E+00
-1.0062728398380008E+00
-1.0062728398378664E+00
-1.0055496471753482E+00
-1.0055493986876753E+00
-1.0007681732913591E+00
-1.0007656144199051E+00
-9.9631852492922912E-01
-9.9631852492915229E-01
-9.9614736557675176E-01
-9.9614736557668682E-01
-9.9394938880691752E-01
-9.9394851759752001E-01
-8.6890201064938877E-01
-8.6775676295014303E-01
-8.6775676294950210E-01
-8.6432983551255271E-01
-8.6432847440821337E-01
-8.5864388963366134E-01
-8.5864388962407001E-01
-8.5074315995451888E-01
-8.5074311551998794E-01
-8.4068807009139701E-01
-8.4068807009127089E-01
-8.2860092788593609E-01
-8.2852086001860004E-01
-8.1446804023014807E-01
-8.1446804022962249E-01
-7.9854395804449430E-01
-7.9854306179095835E-01
-7.8095292397514016E-01
-7.8095292397495464E-01
-7.7462196039748277E-01
-7.7462196039745235E-01
-7.7323369213520954E-01
-7.7322687842034221E-01
-7.6633115526303830E-01
-7.6633016223936323E-01
-7.6434218911553686E-01
-7.6434218911540541E-01
-7.6189580744024277E-01
-7.6189575900156215E-01
-7.5025390867061925E-01
-7.5025154622037193E-01
-7.4760551299200539E-01
-7.4760551299197553E-01
-7.4162232229723291E-01
-7.4162232229717262E-01
-7.3276912330749167E-01
-7.3276912330748367E-01
-7.2042030149412539E-01
-7.2041262727762057E-01
-7.1990187770002168E-01
-7.1990180473037657E-01
-7.1322147411248848E-01
-7.1322046048880172E-01
-6.9861947504030442E-01
-6.9861947504027722E-01
-6.9262089644050162E-01
-6.9262089644049885E-01
-6.8596202540402629E-01
-6.8596202540399542E-01
-6.7662551117901615E-01
-6.7661880752902670E-01
-6.7179653112397242E-01
-6.7179190337255890E-01
-6.5486317682429185E-01
-6.5486317682426642E-01
-6.5145168648228235E-01
-6.5145168648226326E-01
-6.4869777338917844E-01
-6.4852718932821229E-01
-6.3381893503399644E-01
-6.3381879220103987E-01
-6.3222007869985342E-01
-6.3221338670689975E-01
-6.1462016784085804E-01
-6.1462016784081519E-01
-6.1398328716014305E-01
-6.1398328716012218E-01
-6.1036765804399662E-01
-6.1036765804388560E-01
-5.9907589607376199E-01
-5.9907512511920424E-01
-5.9584273149153644E-01
-5.9583095751995807E-01
-5.8584843043221912E-01
-5.8584843043218460E-01
-5.7980443658160630E-01
-5.7980443658157987E-01
-5.7503768012410739E-01
-5.7503311178274819E-01
-5.7358269942013740E-01
-5.7358257339806973E-01
-5.6656381229506181E-01
-5.6656381229502895E-01
-5.6620940019606836E-01
-5.6620799728001892E-01
-5.6026452447636921E-01
-5.6017004649783475E-01
-5.5568255774521602E-01
-5.5568255774510600E-01
-5.5522849146771414E-01
-5.5522849146765918E-01
-5.5260283660056786E-01
-5.5260277258095236E-01
-5.5062721076832311E-01
-5.5062721075965615E-01
-5.4945232155019741E-01
-5.4945009304386705E-01
-5.4884229362612491E-01
-5.4884229362549020E-01
-5.4865569363931910E-01
-5.4687460115211972E-01
-5.4687454808540159E-01
-5.4099103836495011E-01
-5.4099103836473883E-01
-5.4069459411035137E-01
-5.4069459410342446E-01
-5.3874680874620839E-01
-5.3852360393427268E-01
-5.3852360393356902E-01
-5.3789381078501486E-01
-5.3789129902820687E-01
-5.3728460214144336E-01
-5.3728204607071406E-01
-5.3696960034272134E-01
-5.3696960033274044E-01
-5.3594787670643584E-01
-5.3594676273577591E-01
-5.3537246289359419E-01
-5.3537246289322027E-01
-5.3508402008191602E-01
-5.3508402008164690E-01
-5.3484715020530560E-01
-5.3469645870711480E-01
-5.1432686966740648E-01
-5.1432614423314638E-01
-4.9710175128843404E-01
-4.9710175128796474E-01
-4.9109168846260404E-01
QETSC: Iter time (min)       =     5   4.30
QETSC: Iter time (max)       =     5   4.30
QETSC: Iter time (avg)       =     5   4.30
QETSC: Num. of conv. evals   =     5         192
QETSC: Eigenvalue (1)        =     5  -1.4630284668221909E+00
QETSC: Eigenvalue (nocc)     =     5  -4.9109168846260404E-01
QETSC: Max differrence       =     5   2.8047015743516424E-03
QETSC: Safe iteration        =     5      T
QETSC: Finished iter         =           5
 *****************************************************************
QETSC: SCF iter time=   4.310
 QETSc: Custers,iter,crange,npcmax,trial 6 0.253957674345569526E-01 12 4
-1.4441024902598603E+00
-1.4205330786684389E+00
-1.3877951785815874E+00
-1.3461451061075722E+00
-1.3221266488097305E+00
-1.2960858641748791E+00
-1.2681593821123507E+00
-1.2384874540859088E+00
-1.2073036342976782E+00
-1.1749180718036738E+00
-1.1417998046299100E+00
-1.1086569431111570E+00
-1.0765851224228926E+00
-1.0221367907671892E+00
-1.0007656144199051E+00
-9.9394851759752001E-01
-8.5074311551998794E-01
-8.2852086001860004E-01
-7.9854306179095835E-01
-7.6189575900156215E-01
-7.3276912330748367E-01
-6.9861947504027722E-01
-6.7179190337255890E-01
-6.3221338670689975E-01
-5.9583095751995807E-01
-5.6620799728001892E-01
-5.4945009304386705E-01
-5.3852360393356902E-01
-5.3508402008164690E-01
-5.1432614423314638E-01
-4.9710175128796474E-01
 QETSC: Bins             =
                   -INF
-1.4910754825657073E+00
-1.4419796001354230E+00
-1.4174879298920464E+00
-1.3838478709849984E+00
-1.3413414146480154E+00
-1.3169208431352180E+00
-1.2905005677623749E+00
-1.2651925995086275E+00
-1.2353690721070874E+00
-1.2040650937673345E+00
-1.1716062450862981E+00
-1.1384856563045145E+00
-1.1054497610423339E+00
-1.0736496535792883E+00
-1.0210270301025766E+00
-9.9987619652176984E-01
-9.8833911444881672E-01
-8.4873210643426977E-01
-8.2571029606090962E-01
-7.9502503422779469E-01
-7.5956738893537357E-01
-7.3029935894481202E-01
-6.9741975932032207E-01
-6.6840615806290549E-01
-6.2869474293369143E-01
-5.9383445210241026E-01
-5.6501930271928902E-01
-5.4914619333499592E-01
-5.3820870735929194E-01
-5.3496558514347625E-01
-5.1088126564420389E-01
-4.8548228531390075E-01
QETSC: Started iter            6
QETSC: Bin type used         =           7
QETSC: Buffer used           =   2.8047015743516424E-03
QETSC: EPS interval          =      -INF,    -0.485
QETSC: Inertia type          =           1
SLEPc: EPSSolve time = 7 2.577e-06
SLEPc: EPSSolve time = 0 2.579e-06
SLEPc: EPSSolve time = 8 1.195e+00
SLEPc: EPSSolve time = 11 1.202e+00
SLEPc: EPSSolve time = 13 1.216e+00
SLEPc: EPSSolve time = 9 1.225e+00
SLEPc: EPSSolve time = 6 1.226e+00
SLEPc: EPSSolve time = 12 1.229e+00
SLEPc: EPSSolve time = 19 1.230e+00
SLEPc: EPSSolve time = 5 1.239e+00
SLEPc: EPSSolve time = 10 1.240e+00
SLEPc: EPSSolve time = 22 1.241e+00
SLEPc: EPSSolve time = 2 1.248e+00
SLEPc: EPSSolve time = 18 1.252e+00
SLEPc: EPSSolve time = 30 1.252e+00
SLEPc: EPSSolve time = 4 1.272e+00
SLEPc: EPSSolve time = 14 1.274e+00
SLEPc: EPSSolve time = 21 1.280e+00
SLEPc: EPSSolve time = 3 1.280e+00
SLEPc: EPSSolve time = 16 1.280e+00
SLEPc: EPSSolve time = 23 1.299e+00
SLEPc: EPSSolve time = 1 1.300e+00
SLEPc: EPSSolve time = 25 1.301e+00
SLEPc: EPSSolve time = 17 1.312e+00
SLEPc: EPSSolve time = 24 1.317e+00
SLEPc: EPSSolve time = 31 1.319e+00
SLEPc: EPSSolve time = 15 1.325e+00
SLEPc: EPSSolve time = 20 1.339e+00
SLEPc: EPSSolve time = 28 1.372e+00
SLEPc: EPSSolve time = 29 1.373e+00
SLEPc: EPSSolve time = 27 1.682e+00
SLEPc: EPSSolve time = 26 1.720e+00
 QETSC: Eigenvalues         =
-1.4593500695842057E+00
-1.4581655000495610E+00
-1.4581655000443423E+00
-1.4546137727572785E+00
-1.4546128238210105E+00
-1.4486981538396433E+00
-1.4486981538385069E+00
-1.4404285315123933E+00
-1.4404283044640673E+00
-1.4298168345000848E+00
-1.4298168344997808E+00
-1.4168959804243866E+00
-1.4168669355138026E+00
-1.4016468436007399E+00
-1.4016468436005753E+00
-1.3841473563569320E+00
-1.3841435653616285E+00
-1.3644195469158626E+00
-1.3644195469149238E+00
-1.3425241264455976E+00
-1.3425232964925988E+00
-1.3185285751891243E+00
-1.3185285751890865E+00
-1.2925319954006111E+00
-1.2925203694567164E+00
-1.2646382776189888E+00
-1.2646382776189606E+00
-1.2350313429955495E+00
-1.2350272458620952E+00
-1.2039272464762092E+00
-1.2039272464761896E+00
-1.1716580849581408E+00
-1.1716579609307880E+00
-1.1387023382959618E+00
-1.1387023382959365E+00
-1.1057897127784908E+00
-1.1057885750504048E+00
-1.0740373038789652E+00
-1.0740373038789324E+00
-1.0451164088317559E+00
-1.0451159465035569E+00
-1.0227619703510835E+00
-1.0220097947596858E+00
-1.0220097947547682E+00
-1.0212344720605018E+00
-1.0212344720604842E+00
-1.0197933712089136E+00
-1.0197897215934959E+00
-1.0162313281179636E+00
-1.0162313281163460E+00
-1.0115591227654412E+00
-1.0115589554520501E+00
-1.0061554613928028E+00
-1.0061554613925447E+00
-1.0045190270641666E+00
-1.0045187070310804E+00
-1.0006331180069135E+00
-1.0006294852336448E+00
-9.9595581197396132E-01
-9.9595581197382888E-01
-9.9572500535779529E-01
-9.9572500535703867E-01
-9.9362428164093142E-01
-9.9362316929010941E-01
-8.6730160627444564E-01
-8.6615771045708334E-01
-8.6615771045209844E-01
-8.6273492196323409E-01
-8.6273346983071164E-01
-8.5705587969961838E-01
-8.5705587969803165E-01
-8.4916513116841552E-01
-8.4916511938168338E-01
-8.3912337802871217E-01
-8.3912337802844605E-01
-8.2705300018246364E-01
-8.2697341632963517E-01
-8.1294150068932847E-01
-8.1294150068918503E-01
-7.9704317865496010E-01
-7.9704243827420518E-01
-7.7948339921736365E-01
-7.7948339921643706E-01
-7.7087155167407118E-01
-7.7087155167404076E-01
-7.7001054516383305E-01
-7.7000384063039384E-01
-7.6203956541868267E-01
-7.6203860250938982E-01
-7.6154273330581457E-01
-7.6154273330579314E-01
-7.6045965743965394E-01
-7.6045963778487347E-01
-7.4776166647419351E-01
-7.4775936584983260E-01
-7.4287400848577123E-01
-7.4287400848542406E-01
-7.4023436590950731E-01
-7.4023436590944969E-01
-7.3048933643202607E-01
-7.3048933643199920E-01
-7.1908443373298836E-01
-7.1907693624309932E-01
-7.1490073427212486E-01
-7.1490063399329007E-01
-7.1108492707647242E-01
-7.1108392777781138E-01
-6.9734467125505173E-01
-6.9734467125501887E-01
-6.9057881630169193E-01
-6.9057881630166251E-01
-6.8082378321490966E-01
-6.8082378321482306E-01
-6.7542138824078357E-01
-6.7541455509836235E-01
-6.6981483022489230E-01
-6.6981015099885066E-01
-6.5373983833660987E-01
-6.5373983833656912E-01
-6.4950670077682793E-01
-6.4950670077679951E-01
-6.4349919616357898E-01
-6.4332734087135457E-01
-6.3278681879238419E-01
-6.3278667362375141E-01
-6.3029601386541823E-01
-6.3028915627015192E-01
-6.1305220561082296E-01
-6.1305220561078688E-01
-6.1270680575217862E-01
-6.1270680575213743E-01
-6.0514414347485557E-01
-6.0514414347460321E-01
-5.9716774301656317E-01
-5.9716700281674173E-01
-5.9502110550559684E-01
-5.9500915990523962E-01
-5.8394326398644603E-01
-5.8394326398572605E-01
-5.7909790823812890E-01
-5.7909790823809526E-01
-5.7313540171022337E-01
-5.7313090735193173E-01
-5.6835067434806374E-01
-5.6835040731607656E-01
-5.6562032199709400E-01
-5.6561909715919900E-01
-5.6466562391796615E-01
-5.6466562391786634E-01
-5.5837190915055357E-01
-5.5827726943906708E-01
-5.5475537474790471E-01
-5.5475537474785497E-01
-5.5379650522960044E-01
-5.5379650522935520E-01
-5.5072400457927739E-01
[...]

---------------------------------------------- PETSc Performance Summary: ----------------------------------------------

/home/keceli/scratch2/siesta-qetsc/Obj/siesta on a arch-xl named Q02-I0-J04.vesta.itd with 32 processors, by Unknown Thu Dec 22 17:57:03 2016
Using Petsc Development GIT revision: v3.7.3-1204-g68f0caa  GIT Date: 2016-08-19 16:41:02 -0500

                         Max       Max/Min        Avg      Total 
Time (sec):           2.526e+02      1.00000   2.526e+02
Objects:              4.852e+03      1.11055   4.783e+03
Flops:                8.093e+09   1762.16658   6.392e+09  2.045e+11
Flops/sec:            3.204e+07   1762.16658   2.530e+07  8.096e+08
MPI Messages:         2.209e+04      1.50758   1.793e+04  5.738e+05
MPI Message Lengths:  1.052e+08      2.11684   4.371e+03  2.508e+09
MPI Reductions:       1.462e+04      1.00000

Flop counting convention: 1 flop = 1 real number operation of type (multiply/divide/add/subtract)
                            e.g., VecAXPY() for real vectors of length N --> 2N flops
                            and VecAXPY() for complex vectors of length N --> 8N flops

Summary of Stages:   ----- Time ------  ----- Flops -----  --- Messages ---  -- Message Lengths --  -- Reductions --
                        Avg     %Total     Avg     %Total   counts   %Total     Avg         %Total   counts   %Total 
 0:      Main Stage: 1.9972e-04   0.0%  0.0000e+00   0.0%  0.000e+00   0.0%  0.000e+00        0.0%  0.000e+00   0.0% 
 1:     siesta_init: 2.8463e+00   1.1%  0.0000e+00   0.0%  0.000e+00   0.0%  0.000e+00        0.0%  0.000e+00   0.0% 
 2:   siesta_forces: 4.5517e+01  18.0%  0.0000e+00   0.0%  0.000e+00   0.0%  0.000e+00        0.0%  0.000e+00   0.0% 
 3:    siesta_solve: 1.1317e-02   0.0%  0.0000e+00   0.0%  0.000e+00   0.0%  0.000e+00        0.0%  0.000e+00   0.0% 
 4:    siesta2qetsc: 4.8577e-01   0.2%  0.0000e+00   0.0%  3.444e+03   0.6%  8.740e-01        0.0%  2.460e+02   1.7% 
 5: qetsc_setup_eps: 5.5720e+00   2.2%  1.4696e+08   0.1%  2.087e+05  36.4%  4.197e+03       96.0%  1.800e+02   1.2% 
 6: qetsc_solve_eps: 8.4041e+01  33.3%  2.0439e+11  99.9%  2.232e+03   0.4%  2.334e-02        0.0%  2.880e+02   2.0% 
 7:   qetsc_eigvals: 9.5513e-02   0.0%  0.0000e+00   0.0%  0.000e+00   0.0%  0.000e+00        0.0%  0.000e+00   0.0% 
 8:   qetsc_density: 1.3593e+01   5.4%  0.0000e+00   0.0%  3.594e+05  62.6%  1.730e+02        4.0%  1.391e+04  95.1% 
10:     siesta_misc: 9.9472e+01  39.4%  0.0000e+00   0.0%  0.000e+00   0.0%  0.000e+00        0.0%  0.000e+00   0.0% 
11:     siesta_move: 4.1893e-01   0.2%  0.0000e+00   0.0%  0.000e+00   0.0%  0.000e+00        0.0%  0.000e+00   0.0% 
12: siesta_analysis: 1.5848e-02   0.0%  0.0000e+00   0.0%  0.000e+00   0.0%  0.000e+00        0.0%  0.000e+00   0.0% 
13:     qetsc_clean: 3.5187e-06   0.0%  0.0000e+00   0.0%  0.000e+00   0.0%  0.000e+00        0.0%  0.000e+00   0.0% 
14:      siesta_end: 5.5356e-01   0.2%  0.0000e+00   0.0%  0.000e+00   0.0%  0.000e+00        0.0%  0.000e+00   0.0% 

------------------------------------------------------------------------------------------------------------------------
See the 'Profiling' chapter of the users' manual for details on interpreting output.
Phase summary info:
   Count: number of times phase was executed
   Time and Flops: Max - maximum over all processors
                   Ratio - ratio of maximum to minimum over all processors
   Mess: number of messages sent
   Avg. len: average message length (bytes)
   Reduct: number of global reductions
   Global: entire computation
   Stage: stages of a computation. Set stages with PetscLogStagePush() and PetscLogStagePop().
      %T - percent time in this phase         %F - percent flops in this phase
      %M - percent messages in this phase     %L - percent message lengths in this phase
      %R - percent reductions in this phase
   Total Mflop/s: 10e-6 * (sum of flops over all processors)/(max time over all processors)
------------------------------------------------------------------------------------------------------------------------
Event                Count      Time (sec)     Flops                             --- Global ---  --- Stage ---   Total
                   Max Ratio  Max     Ratio   Max  Ratio  Mess   Avg len Reduct  %T %F %M %L %R  %T %F %M %L %R Mflop/s
------------------------------------------------------------------------------------------------------------------------

--- Event Stage 0: Main Stage


--- Event Stage 1: siesta_init


--- Event Stage 2: siesta_forces


--- Event Stage 3: siesta_solve


--- Event Stage 4: siesta2qetsc

MatConvert            12 1.0 6.4752e-03 1.0 0.00e+00 0.0 0.0e+00 0.0e+00 0.0e+00  0  0  0  0  0   1  0  0  0  0     0
MatAssemblyBegin      42 1.0 3.5971e-0167.5 0.00e+00 0.0 0.0e+00 0.0e+00 1.7e+02  0  0  0  0  1  51  0  0  0 68     0
MatAssemblyEnd        42 1.0 1.6809e-02 1.0 0.00e+00 0.0 3.4e+03 1.5e+02 6.6e+01  0  0  1  0  0   3  0100100 27     0
VecSet                18 1.0 7.0504e-05 1.2 0.00e+00 0.0 0.0e+00 0.0e+00 0.0e+00  0  0  0  0  0   0  0  0  0  0     0

--- Event Stage 5: qetsc_setup_eps

MatCholFctrSym         6 1.0 1.6405e+00 1.1 0.00e+00 0.0 0.0e+00 0.0e+00 0.0e+00  1  0  0  0  0  27  0  0  0  0     0
MatCholFctrNum         6 1.0 1.3370e+00 1.0 0.00e+00 0.0 0.0e+00 0.0e+00 0.0e+00  1  0  0  0  0  24  0  0  0  0     0
MatCopy               24 1.0 3.2997e-02 8.0 0.00e+00 0.0 0.0e+00 0.0e+00 0.0e+00  0  0  0  0  0   1  0  0  0  0     0
MatConvert            24 1.0 5.8305e-02 2.6 0.00e+00 0.0 0.0e+00 0.0e+00 0.0e+00  0  0  0  0  0   1  0  0  0  0     0
MatScale              60 1.0 1.8286e-02 6.0 4.59e+06 1.0 0.0e+00 0.0e+00 0.0e+00  0  0  0  0  0   0100  0  0  0  8037
MatAssemblyBegin      48 1.0 1.1546e-04 1.3 0.00e+00 0.0 0.0e+00 0.0e+00 0.0e+00  0  0  0  0  0   0  0  0  0  0     0
MatAssemblyEnd        48 1.0 9.4197e-02 1.7 0.00e+00 0.0 0.0e+00 0.0e+00 0.0e+00  0  0  0  0  0   1  0  0  0  0     0
MatGetRow          17664 1.0 1.4892e-01 1.0 0.00e+00 0.0 0.0e+00 0.0e+00 0.0e+00  0  0  0  0  0   3  0  0  0  0     0
MatGetRowIJ            6 1.0 1.3721e-05 1.6 0.00e+00 0.0 0.0e+00 0.0e+00 0.0e+00  0  0  0  0  0   0  0  0  0  0     0
MatGetSubMatrice      42 1.0 1.8313e+00 1.1 0.00e+00 0.0 2.1e+05 1.2e+04 8.4e+01  1  0 36 96  1  31  0100100 47     0
MatGetOrdering         6 1.0 1.4351e-03 1.2 0.00e+00 0.0 0.0e+00 0.0e+00 0.0e+00  0  0  0  0  0   0  0  0  0  0     0
MatAXPY               36 1.0 6.3544e-01 1.1 0.00e+00 0.0 0.0e+00 0.0e+00 0.0e+00  0  0  0  0  0  11  0  0  0  0     0
MatRedundantMat       42 1.0 1.8635e+00 1.1 0.00e+00 0.0 2.1e+05 1.2e+04 8.4e+01  1  0 36 96  1  32  0100100 47     0
VecSet                42 1.0 1.0183e-03 1.3 0.00e+00 0.0 0.0e+00 0.0e+00 0.0e+00  0  0  0  0  0   0  0  0  0  0     0
EPSSetUp               6 1.0 4.2222e+00 1.0 0.00e+00 0.0 6.0e+04 1.1e+04 1.1e+02  2  0 10 27  1  76  0 29 29 60     0
STSetUp               12 1.0 3.5982e+00 1.1 0.00e+00 0.0 0.0e+00 0.0e+00 1.2e+01  1  0  0  0  0  62  0  0  0  7     0
KSPSetUp               6 1.0 2.0092e-05 1.6 0.00e+00 0.0 0.0e+00 0.0e+00 0.0e+00  0  0  0  0  0   0  0  0  0  0     0
PCSetUp                6 1.0 2.9820e+00 1.1 0.00e+00 0.0 0.0e+00 0.0e+00 0.0e+00  1  0  0  0  0  51  0  0  0  0     0

--- Event Stage 6: qetsc_solve_eps

MatMult             9689 0.0 2.2520e+01 0.0 5.89e+09 0.0 0.0e+00 0.0e+00 0.0e+00  7 73  0  0  0  21 73  0  0  0  6609
MatSolve            3661 0.0 2.6693e+01 0.0 0.00e+00 0.0 0.0e+00 0.0e+00 0.0e+00  8  0  0  0  0  25  0  0  0  0     0
MatCholFctrNum        37 1.0 8.1213e+00 1.0 0.00e+00 0.0 0.0e+00 0.0e+00 0.0e+00  3  0  0  0  0   9  0  0  0  0     0
MatCopy               37 1.0 1.8239e+00 1.0 0.00e+00 0.0 0.0e+00 0.0e+00 0.0e+00  1  0  0  0  0   2  0  0  0  0     0
MatAssemblyBegin      74 1.0 1.0160e-04 1.4 0.00e+00 0.0 0.0e+00 0.0e+00 0.0e+00  0  0  0  0  0   0  0  0  0  0     0
MatAssemblyEnd        74 1.0 1.0030e-01 1.0 0.00e+00 0.0 0.0e+00 0.0e+00 0.0e+00  0  0  0  0  0   0  0  0  0  0     0
MatGetRow         163392 1.0 1.3298e+00 1.0 0.00e+00 0.0 0.0e+00 0.0e+00 0.0e+00  1  0  0  0  0   2  0  0  0  0     0
MatZeroEntries        37 1.0 2.9057e-02 1.1 0.00e+00 0.0 0.0e+00 0.0e+00 0.0e+00  0  0  0  0  0   0  0  0  0  0     0
MatAXPY               37 1.0 3.6538e+00 1.0 0.00e+00 0.0 0.0e+00 0.0e+00 0.0e+00  1  0  0  0  0   4  0  0  0  0     0
VecDot               493 0.0 4.0772e-03 0.0 1.45e+06 0.0 0.0e+00 0.0e+00 0.0e+00  0  0  0  0  0   0  0  0  0  0  4989
VecCopy             3716 0.0 1.7328e-02 0.0 0.00e+00 0.0 0.0e+00 0.0e+00 0.0e+00  0  0  0  0  0   0  0  0  0  0     0
VecSet             13656126.4 7.9894e-02197.9 0.00e+00 0.0 0.0e+00 0.0e+00 0.0e+00  0  0  0  0  0   0  0  0  0  0     0
VecSetRandom          36 0.0 3.1806e-02 0.0 0.00e+00 0.0 0.0e+00 0.0e+00 0.0e+00  0  0  0  0  0   0  0  0  0  0     0
EPSSetUp              36 1.0 1.4749e+01 1.1 0.00e+00 0.0 2.2e+03 6.0e+00 7.2e+01  6  0  0  0  0  17  0100100 25     0
EPSSolve              36 1.0 8.4132e+01 1.0 8.09e+09 0.0 2.2e+03 6.0e+00 2.9e+02 33100  0  0  2 100100100100100  2429
STSetUp               66 1.0 1.1107e+01 1.0 0.00e+00 0.0 0.0e+00 0.0e+00 0.0e+00  4  0  0  0  0  13  0  0  0  0     0
STApply             3661 0.0 3.5762e+01 0.0 2.23e+09 0.0 0.0e+00 0.0e+00 0.0e+00 11 27  0  0  0  33 27  0  0  0  1541
STMatSolve          3661 0.0 2.7249e+01 0.0 0.00e+00 0.0 0.0e+00 0.0e+00 0.0e+00  8  0  0  0  0  25  0  0  0  0     0
KSPSetUp              37 1.0 6.6623e-05 1.5 0.00e+00 0.0 0.0e+00 0.0e+00 0.0e+00  0  0  0  0  0   0  0  0  0  0     0
KSPSolve            3661 0.0 2.6832e+01 0.0 0.00e+00 0.0 0.0e+00 0.0e+00 0.0e+00  8  0  0  0  0  25  0  0  0  0     0
PCSetUp               37 1.0 8.1224e+00 1.0 0.00e+00 0.0 0.0e+00 0.0e+00 0.0e+00  3  0  0  0  0   9  0  0  0  0     0
PCApply             3661 0.0 2.6712e+01 0.0 0.00e+00 0.0 0.0e+00 0.0e+00 0.0e+00  8  0  0  0  0  25  0  0  0  0     0
BVCreate              73 0.0 3.2746e-02 0.0 0.00e+00 0.0 0.0e+00 0.0e+00 0.0e+00  0  0  0  0  0   0  0  0  0  0     0
BVCopy                91 0.0 7.3995e-04 0.0 0.00e+00 0.0 0.0e+00 0.0e+00 0.0e+00  0  0  0  0  0   0  0  0  0  0     0
BVMultVec           5637 0.0 9.4274e-01 0.0 7.46e+08 0.0 0.0e+00 0.0e+00 0.0e+00  0  9  0  0  0   1  9  0  0  0 18973
BVMultInPlace         59 0.0 3.0105e-01 0.0 7.15e+08 0.0 0.0e+00 0.0e+00 0.0e+00  0  9  0  0  0   0  9  0  0  0 63752
BVDotVec            5637 0.0 1.3691e+01 0.0 4.19e+09 0.0 0.0e+00 0.0e+00 0.0e+00  4 53  0  0  0  13 53  0  0  0  7878
BVOrthogonalizeV    3328 0.0 1.4688e+01 0.0 4.94e+09 0.0 0.0e+00 0.0e+00 0.0e+00  5 61  0  0  0  14 62  0  0  0  8561
BVScale             3661 0.0 2.3613e-02 0.0 5.39e+06 0.0 0.0e+00 0.0e+00 0.0e+00  0  0  0  0  0   0  0  0  0  0  5650
BVNormVec            493 0.0 1.1513e+00 0.0 3.01e+08 0.0 0.0e+00 0.0e+00 0.0e+00  0  2  0  0  0   1  2  0  0  0  3668
BVSetRandom           36 0.0 3.2177e-02 0.0 0.00e+00 0.0 0.0e+00 0.0e+00 0.0e+00  0  0  0  0  0   0  0  0  0  0     0
DSSolve               59 0.0 5.9394e-01 0.0 0.00e+00 0.0 0.0e+00 0.0e+00 0.0e+00  0  0  0  0  0   1  0  0  0  0     0
DSVectors           3825 0.0 8.9588e-03 0.0 0.00e+00 0.0 0.0e+00 0.0e+00 0.0e+00  0  0  0  0  0   0  0  0  0  0     0
DSOther               59 0.0 1.7357e-02 0.0 0.00e+00 0.0 0.0e+00 0.0e+00 0.0e+00  0  0  0  0  0   0  0  0  0  0     0

--- Event Stage 7: qetsc_eigvals


--- Event Stage 8: qetsc_density

VecCopy             6912 1.0 1.8342e-02 1.1 0.00e+00 0.0 0.0e+00 0.0e+00 0.0e+00  0  0  0  0  0   0  0  0  0  0     0
VecSet                 6 1.0 3.4876e-05 1.5 0.00e+00 0.0 0.0e+00 0.0e+00 0.0e+00  0  0  0  0  0   0  0  0  0  0     0
VecScatterBegin    13824 1.0 8.2499e-01 1.1 0.00e+00 0.0 2.1e+05 3.7e+02 6.9e+03  0  0 37  3 47   6  0 60 79 50     0
VecScatterEnd       6912 1.0 1.4171e+00 1.1 0.00e+00 0.0 0.0e+00 0.0e+00 0.0e+00  1  0  0  0  0  10  0  0  0  0     0
BVCopy              6912 1.0 5.2424e-02 1.0 0.00e+00 0.0 0.0e+00 0.0e+00 0.0e+00  0  0  0  0  0   0  0  0  0  0     0

--- Event Stage 9: Unknown


--- Event Stage 10: siesta_misc


--- Event Stage 11: siesta_move


--- Event Stage 12: siesta_analysis


--- Event Stage 13: qetsc_clean


--- Event Stage 14: siesta_end

------------------------------------------------------------------------------------------------------------------------

Memory usage is given in bytes:

Object Type          Creations   Destructions     Memory  Descendants' Mem.
Reports information only for process 0.

--- Event Stage 0: Main Stage


--- Event Stage 1: siesta_init


--- Event Stage 2: siesta_forces


--- Event Stage 3: siesta_solve


--- Event Stage 4: siesta2qetsc

              Matrix    54              0            0     0.
              Vector   114              6         9888     0.
      Vector Scatter    24              0            0     0.
           Index Set    24             24        45312     0.

--- Event Stage 5: qetsc_setup_eps

              Matrix    54              6     12984312     0.
              Vector   108              0            0     0.
           Index Set   132             90        70560     0.
          EPS Solver    12              0            0     0.
  Spectral Transform    12              0            0     0.
       Krylov Solver    12              0            0     0.
      Preconditioner    12              0            0     0.
       Basis Vectors    18              0            0     0.
         PetscRandom     6              0            0     0.
              Region    12              0            0     0.
       Direct Solver    12              0            0     0.

--- Event Stage 6: qetsc_solve_eps

              Matrix    36             36     88927920     0.
              Vector   180            180      1546848     0.
       Basis Vectors    36             36        38016     0.

--- Event Stage 7: qetsc_eigvals


--- Event Stage 8: qetsc_density

              Vector    42             36       483264     0.
      Vector Scatter  1158           1152      1248192     0.
           Index Set  2310           2310      2234976     0.

--- Event Stage 9: Unknown


--- Event Stage 10: siesta_misc


--- Event Stage 11: siesta_move

              Matrix     0            102     99650868     0.
              Vector     0            222      7094016     0.
      Vector Scatter     0             30        29664     0.
           Index Set     0             42        68256     0.
          EPS Solver     0             12        92424     0.
  Spectral Transform     0             12         9792     0.
       Krylov Solver     0             12        14016     0.
      Preconditioner     0             12        11712     0.
       Basis Vectors     0             18        19008     0.
         PetscRandom     0              6         3828     0.
              Region     0             12         7872     0.
       Direct Solver     0             12       659952     0.

--- Event Stage 12: siesta_analysis


--- Event Stage 13: qetsc_clean


--- Event Stage 14: siesta_end

              Viewer     1              0            0     0.
========================================================================================================================
Average time to get PetscTime(): 1.38125e-07
Average time for MPI_Barrier(): 2.87475e-06
Average time for zero size MPI_Send(): 1.04626e-05
#PETSc Option Table entries:
-eps_interval -2.3,0.
-eps_krylovschur_detect_zeros 0
-eps_krylovschur_partitions 32
-ioptbin 7
-ioptdensity 0
-ioptinertia 1
-ioptleft 2
-ioptwrite 1
-log_view
-mat_mumps_cntl_3 1e-12
-mat_mumps_icntl_13 1
-mat_mumps_icntl_24 1
-mat_mumps_icntl_7 3
-mat_type mpisbaij
-roptbuffer 0.1
-roptdiff 0.02
#End of PETSc Option Table entries
Compiled with FORTRAN kernels
Compiled with full precision matrices (default)
sizeof(short) 2 sizeof(int) 4 sizeof(long) 8 sizeof(void*) 8 sizeof(PetscScalar) 8 sizeof(PetscInt) 4
Configure options: --known-has-attribute-aligned=1 --download-chaco=0 --download-cmake=0 --download-hypre=0 --download-metis=1 --download-mumps=1 --download-parmetis=1 --download-plapack=0 --download-prometheus=0 --download-ptscotch=1 --download-spai=0 --download-spooles=0 --download-superlu=0 --download-superlu_dist=0 --download-triangle=0 --known-bits-per-byte=8 --known-level1-dcache-assoc=0 --known-level1-dcache-linesize=32 --known-level1-dcache-size=32768 --known-memcmp-ok=1 --known-mpi-c-double-complex=1 --known-mpi-int64_t=1 --known-mpi-long-double=1 --known-mpi-shared-libraries=0 --known-sdot-returns-double=0 --known-sizeof-MPI_Comm=4 --known-sizeof-MPI_Fint=4 --known-sizeof-char=1 --known-sizeof-double=8 --known-sizeof-float=4 --known-sizeof-int=4 --known-sizeof-long-long=8 --known-sizeof-long=8 --known-sizeof-short=2 --known-sizeof-size_t=8 --known-sizeof-void-p=8 --known-snrm2-returns-double=0 --with-batch=1 --with-blacs-include=/soft/libraries/alcf/current/xl/SCALAPACK/ --with-blacs-lib=/soft/libraries/alcf/current/xl/SCALAPACK/lib/libscalapack.a --with-blas-lapack-lib="-L/soft/libraries/alcf/current/xl/LAPACK/lib -llapack -L/soft/libraries/alcf/current/xl/BLAS/lib -lblas" --with-cc=mpixlc_r --with-clib-autodetect=0 --with-cxx=mpixlcxx_r --with-cxxlib-autodetect=0 --with-debugging=0 --with-fc="mpixlf77_r -qnosave" --with-fortran-kernels=1 --with-fortranlib-autodetect=0 --with-is-color-value-type=short --with-scalapack-include=/soft/libraries/alcf/current/xl/SCALAPACK/ --with-scalapack-lib=/soft/libraries/alcf/current/xl/SCALAPACK/lib/libscalapack.a --with-shared-libraries=0 --with-x=0 -COPTFLAGS=" -g -O3 -qhot=level=0 -qsimd=auto -qmaxmem=-1 -qstrict -qstrict_induction" -CXXOPTFLAGS="  -g -O3 -qhot=level=0 -qsimd=auto -qmaxmem=-1 -qstrict -qstrict_induction" -FOPTFLAGS=" -g -O3 -qhot=level=0 -qsimd=auto -qmaxmem=-1 -qstrict -qstrict_induction" LIBS="-lmpichcxx-gcc -lmpichf77-gcc -L/soft/compilers/ibmcmp-feb2015/vacpp/bg/12.1/bglib64 -libmc++ -L/soft/compilers/ibmcmp-feb2015/xlf/bg/14.1/bglib64 -lxlf90_r -lxlomp_ser -lxlfmath" PETSC_ARCH=arch-xl
-----------------------------------------
Libraries compiled on Sat Aug 20 04:19:47 2016 on vestalac2 
Machine characteristics: Linux-2.6.32-573.18.1.el6.ppc64-ppc64-with-redhat-6.7-Santiago
Using PETSc directory: /home/keceli/scratch2/petsc
Using PETSc arch: arch-xl
-----------------------------------------

Using C compiler: mpixlc_r   -g -O3 -qhot=level=0 -qsimd=auto -qmaxmem=-1 -qstrict -qstrict_induction  ${COPTFLAGS} ${CFLAGS}
Using Fortran compiler: mpixlf77_r -qnosave  -g -O3 -qhot=level=0 -qsimd=auto -qmaxmem=-1 -qstrict -qstrict_induction   ${FOPTFLAGS} ${FFLAGS} 
-----------------------------------------

Using include paths: -I/home/keceli/scratch2/petsc/arch-xl/include -I/home/keceli/scratch2/petsc/include -I/home/keceli/scratch2/petsc/include -I/home/keceli/scratch2/petsc/arch-xl/include -I/bgsys/drivers/V1R2M4/ppc64/comm/include -I/bgsys/drivers/V1R2M4/ppc64/comm/lib/xl -I/bgsys/drivers/V1R2M4/ppc64 -I/bgsys/drivers/V1R2M4/ppc64/comm/sys/include -I/bgsys/drivers/V1R2M4/ppc64/spi/include -I/bgsys/drivers/V1R2M4/ppc64/spi/include/kernel/cnk
-----------------------------------------

Using C linker: mpixlc_r
Using Fortran linker: mpixlf77_r -qnosave
Using libraries: -Wl,-rpath,/home/keceli/scratch2/petsc/arch-xl/lib -L/home/keceli/scratch2/petsc/arch-xl/lib -lpetsc -Wl,-rpath,/home/keceli/scratch2/petsc/arch-xl/lib -L/home/keceli/scratch2/petsc/arch-xl/lib -lcmumps -ldmumps -lsmumps -lzmumps -lmumps_common -lpord -Wl,-rpath,/soft/libraries/alcf/current/xl/SCALAPACK/lib -L/soft/libraries/alcf/current/xl/SCALAPACK/lib -lscalapack -L/soft/libraries/alcf/current/xl/LAPACK/lib -llapack -L/soft/libraries/alcf/current/xl/BLAS/lib -lblas -lparmetis -lmetis -lptesmumps -lptscotch -lptscotcherr -lscotch -lscotcherr -lrt -lm -lpthread -ldl -lmpichcxx-gcc -lmpichf77-gcc -L/soft/compilers/ibmcmp-feb2015/vacpp/bg/12.1/bglib64 -libmc++ -L/soft/compilers/ibmcmp-feb2015/xlf/bg/14.1/bglib64 -lxlf90_r -lxlomp_ser -lxlfmath
-----------------------------------------

