s.subSiesta: Submission time = 02s24m05h
s.subSiesta: Job name = qp64cg_0000_s16_n1_c16_vesta
s.subSiesta: Number of nodes = 1
s.subSiesta: Number of cores = 16
s.subSiesta: Number of cores/node = 16
s.subSiesta: Number of slices = 16
s.subSiesta: Mapping = ABCDET
02s24m05h
#QETSc options
-ioptbin 0
-ioptdensity 0
-ioptinertia 0
-ioptleft 0
-ioptwrite 1 
#-roptbuffer 0.01
-roptdiff 0.

#PETSc options
-mat_type mpisbaij
-log_view
#-mat_view
#-memory_view
#-mat_mumps_icntl_13 1 #turn off scaLAPACK for matrix inertia
#-mat_mumps_icntl_24 1 #null pivot row detection for matrix inertia
-mat_mumps_icntl_23 0
#-mat_mumps_icntl_28 1 # serial analysis
#-mat_mumps_icntl_28 2 #parallel analysis
#-mat_mumps_icntl_29 1 #ptscotch
#-mat_mumps_icntl_29 2 #parmetis
-mat_mumps_icntl_7 5 #metis
#-malloc_info 
#-mat_view ::ascii_info 
#-mat_getrow_uppertriangular 1
#-st_type sinvert 
#-st_ksp_type preonly 
#-st_pc_type cholesky 
#-st_pc_factor_mat_solver_package mumps 

#SLEPc options

#-eps_krylovschur_partitions 1  
-eps_interval -2.3,0.
#-eps_tol  1.e-8
-eps_krylovschur_detect_zeros 0
#-eps_purify 1
SystemName          polyethylene
SystemLabel         polyethylene
NumberOfAtoms       6
NumberOfSpecies     2

%block ChemicalSpeciesLabel
 1  6  C
 2  1  H
%endblock ChemicalSpeciesLabel

DM.MixingWeight 0.3
DM.NumberPulay 3
#BlockSize 23
SolutionMethod  qetsc
WriteDM .false.
WriteDM.NetCDF .false.
WriteDMHS.NetCDF .false.
LongOutput .false.
#MaxSCFIterations 1

MD.TypeOfRun         cg
MD.NumCGsteps        50
MD.MaxCGDispl         0.1  Ang
MD.MaxForceTol        0.01 eV/Ang

PAO.BasisType split
PAO.BasisSize DZP

LatticeConstant 1.00 Ang
%block LatticeVectors
20.000  0.000  0.000
 0.000 20.000  0.000
 0.000  0.000  2.572
%endblock LatticeVectors

%block kgrid_Monkhorst_Pack
1 0 0 0.0
0 1 0 0.0
0 0 1 0.0
%endblock kgrid_Monkhorst_Pack

%block SuperCell
1 0 0
0 1 0
0 0 64
%endblock SuperCell

AtomicCoordinatesFormat Ang
%block AtomicCoordinatesAndAtomicSpecies
  0.31237500000000001       0.28138740000000001       0.64300000000000002     1
   1.3964999999999999        7.3970400000000006E-002  0.64300000000000002     2
  0.21462000000000001        1.3794480000000002       0.64300000000000002     2
 -0.31237500000000001      -0.28138740000000001      -0.64300000000000002     1
  -1.3964999999999999       -7.3970400000000006E-002 -0.64300000000000002     2
 -0.21462000000000001       -1.3794480000000002      -0.64300000000000002     2
%endblock AtomicCoordinatesAndAtomicSpecies
Siesta Version: siesta-trunk-492
Architecture  : powerpc64-unknown-linux-gnu--Xlf
Compiler flags: mpixlf90_r -I/home/keceli/scratch2/petsc/include -I/home/keceli/scratch2/petssc/arch-xl/include -I/bgsys/drivers/V1R2M4/ppc64/comm/include -I/bgsys/drivers/V1R2M4/ppc64/comm/lib/xl -I/bgsys/drivers/V1R2M4/ppc64 -I/bgsys/drivers/V1R2M4/ppc64/comm/sys/include -I/bgsys/drivers/V1R2M4/ppc64/spi/include -I/bgsys/drivers/V1R2M4/ppc64/spi/include/kernel/cnk -I/home/keceli/scratch2/slepcfork/include -I/home/keceli/scratch2/slepcfork/arch-xl/include
PP flags      : -WF,-DMPI -WF,-DFC_HAVE_ABORT -WF,-DBSC_CELLXC -WF,-DMPI_TIMING 
PARALLEL version

* Running on   16 nodes in parallel
>> Start of run:   6-JAN-2017   5:25:05

                           ***********************       
                           *  WELCOME TO SIESTA  *       
                           ***********************       
WARNING: Siesta is reading its input from file INPUT_DEBUG

reinit: -----------------------------------------------------------------------
reinit: System Name: polyethylene
reinit: -----------------------------------------------------------------------
reinit: System Label: polyethylene                                                
reinit: -----------------------------------------------------------------------

initatom: Reading input for the pseudopotentials and atomic orbitals ----------
Species number:   1 Atomic number:    6 Label: C
Species number:   2 Atomic number:    1 Label: H
 
Ground state valence configuration:   2s02  2p02
Reading pseudopotential information in formatted form from C.psf

Valence configuration for pseudopotential generation:
2s( 2.00) rc: 1.54
2p( 2.00) rc: 1.54
3d( 0.00) rc: 1.54
4f( 0.00) rc: 1.54
Ground state valence configuration:   1s01
Reading pseudopotential information in formatted form from H.psf

Valence configuration for pseudopotential generation:
1s( 1.00) rc: 1.31
2p( 0.00) rc: 1.31
3d( 0.00) rc: 0.37
4f( 0.00) rc: 1.31
For C, standard SIESTA heuristics set lmxkb to 3
 (one more than the basis l, including polarization orbitals).
Use PS.lmax or PS.KBprojectors blocks to override.
For H, standard SIESTA heuristics set lmxkb to 2
 (one more than the basis l, including polarization orbitals).
Use PS.lmax or PS.KBprojectors blocks to override.

<basis_specs>
===============================================================================
C                    Z=   6    Mass=  12.010        Charge= 0.17977+309
Lmxo=1 Lmxkb= 3    BasisType=split      Semic=F
L=0  Nsemic=0  Cnfigmx=2
          n=1  nzeta=2  polorb=0
            splnorm:   0.15000    
               vcte:    0.0000    
               rinn:    0.0000    
               qcoe:    0.0000    
               qyuk:    0.0000    
               qwid:   0.10000E-01
                rcs:    0.0000      0.0000    
            lambdas:    1.0000      1.0000    
L=1  Nsemic=0  Cnfigmx=2
          n=1  nzeta=2  polorb=1
            splnorm:   0.15000    
               vcte:    0.0000    
               rinn:    0.0000    
               qcoe:    0.0000    
               qyuk:    0.0000    
               qwid:   0.10000E-01
                rcs:    0.0000      0.0000    
            lambdas:    1.0000      1.0000    
-------------------------------------------------------------------------------
L=0  Nkbl=1  erefs: 0.17977+309
L=1  Nkbl=1  erefs: 0.17977+309
L=2  Nkbl=1  erefs: 0.17977+309
L=3  Nkbl=1  erefs: 0.17977+309
===============================================================================
</basis_specs>

atom: Called for C                     (Z =   6)

read_vps: Pseudopotential generation method:
read_vps: ATM3      Troullier-Martins                       
Total valence charge:    4.00000

xc_check: Exchange-correlation functional:
xc_check: Ceperley-Alder
V l=0 = -2*Zval/r beyond r=  1.5227
V l=1 = -2*Zval/r beyond r=  1.5227
V l=2 = -2*Zval/r beyond r=  1.5227
V l=3 = -2*Zval/r beyond r=  1.5038
All V_l potentials equal beyond r=  1.5227
This should be close to max(r_c) in ps generation
All pots = -2*Zval/r beyond r=  1.5227

VLOCAL1: 99.0% of the norm of Vloc inside     18.722 Ry
VLOCAL1: 99.9% of the norm of Vloc inside     42.668 Ry
atom: Maximum radius for 4*pi*r*r*local-pseudopot. charge    1.83678
atom: Maximum radius for r*vlocal+2*Zval:    1.58088
GHOST: No ghost state for L =  0
GHOST: No ghost state for L =  1
GHOST: No ghost state for L =  2
GHOST: No ghost state for L =  3

KBgen: Kleinman-Bylander projectors: 
   l= 0   rc=  1.747182   el= -1.001948   Ekb=  4.950286   kbcos=  0.319819
   l= 1   rc=  1.747182   el= -0.398598   Ekb= -4.108613   kbcos= -0.367053
   l= 2   rc=  1.930978   el=  0.002326   Ekb= -1.042946   kbcos= -0.009366
   l= 3   rc=  2.055542   el=  0.003420   Ekb= -0.408633   kbcos= -0.001262

KBgen: Total number of  Kleinman-Bylander projectors:   16
atom: -------------------------------------------------------------------------

atom: SANKEY-TYPE ORBITALS:
atom: Selected multiple-zeta basis: split     

SPLIT: Orbitals with angular momentum L= 0

SPLIT: Basis orbitals for state 2s

SPLIT: PAO cut-off radius determined from an
SPLIT: energy shift=  0.020000 Ry

   izeta = 1
                 lambda =    1.000000
                     rc =    4.191849
                 energy =   -0.983897
                kinetic =    0.880927
    potential(screened) =   -1.864824
       potential(ionic) =   -5.475687

   izeta = 2
                 rmatch =    3.431921
              splitnorm =    0.150000
                 energy =   -0.853083
                kinetic =    1.298222
    potential(screened) =   -2.151305
       potential(ionic) =   -5.995890

SPLIT: Orbitals with angular momentum L= 1

SPLIT: Basis orbitals for state 2p

SPLIT: PAO cut-off radius determined from an
SPLIT: energy shift=  0.020000 Ry

   izeta = 1
                 lambda =    1.000000
                     rc =    4.870301
                 energy =   -0.379093
                kinetic =    2.540023
    potential(screened) =   -2.919116
       potential(ionic) =   -6.427960

   izeta = 2
                 rmatch =    3.475094
              splitnorm =    0.150000
                 energy =   -0.215057
                kinetic =    3.814571
    potential(screened) =   -4.029628
       potential(ionic) =   -7.920250

POLgen: Perturbative polarization orbital with L=  2

POLgen: Polarization orbital for state 2p

   izeta = 1
                     rc =    4.870301
                 energy =    1.280996
                kinetic =    2.631310
    potential(screened) =   -1.350314
       potential(ionic) =   -4.295640
atom: Total number of Sankey-type orbitals: 13

atm_pop: Valence configuration (for local Pseudopot. screening):
 2s( 2.00)                                                            
 2p( 2.00)                                                            
Vna: chval, zval:    4.00000   4.00000

Vna:  Cut-off radius for the neutral-atom potential:   4.870301

atom: _________________________________________________________________________

<basis_specs>
===============================================================================
H                    Z=   1    Mass=  1.0100        Charge= 0.17977+309
Lmxo=0 Lmxkb= 2    BasisType=split      Semic=F
L=0  Nsemic=0  Cnfigmx=1
          n=1  nzeta=2  polorb=1
            splnorm:   0.15000    
               vcte:    0.0000    
               rinn:    0.0000    
               qcoe:    0.0000    
               qyuk:    0.0000    
               qwid:   0.10000E-01
                rcs:    0.0000      0.0000    
            lambdas:    1.0000      1.0000    
-------------------------------------------------------------------------------
L=0  Nkbl=1  erefs: 0.17977+309
L=1  Nkbl=1  erefs: 0.17977+309
L=2  Nkbl=1  erefs: 0.17977+309
===============================================================================
</basis_specs>

atom: Called for H                     (Z =   1)

read_vps: Pseudopotential generation method:
read_vps: ATM3      Troullier-Martins                       
Total valence charge:    1.00000

xc_check: Exchange-correlation functional:
xc_check: Ceperley-Alder
V l=0 = -2*Zval/r beyond r=  1.2977
V l=1 = -2*Zval/r beyond r=  1.2815
V l=2 = -2*Zval/r beyond r=  1.1307
All V_l potentials equal beyond r=  1.2977
This should be close to max(r_c) in ps generation
All pots = -2*Zval/r beyond r=  1.2977

VLOCAL1: 99.0% of the norm of Vloc inside     25.776 Ry
VLOCAL1: 99.9% of the norm of Vloc inside     58.745 Ry
atom: Maximum radius for 4*pi*r*r*local-pseudopot. charge    1.52711
atom: Maximum radius for r*vlocal+2*Zval:    1.28155
GHOST: No ghost state for L =  0
GHOST: No ghost state for L =  1
GHOST: No ghost state for L =  2

KBgen: Kleinman-Bylander projectors: 
   l= 0   rc=  1.434438   el= -0.467325   Ekb= -1.940326   kbcos= -0.353040
   l= 1   rc=  1.508111   el=  0.001430   Ekb= -0.480826   kbcos= -0.024144
   l= 2   rc=  1.527112   el=  0.002365   Ekb= -0.479392   kbcos= -0.001656

KBgen: Total number of  Kleinman-Bylander projectors:    9
atom: -------------------------------------------------------------------------

atom: SANKEY-TYPE ORBITALS:
atom: Selected multiple-zeta basis: split     

SPLIT: Orbitals with angular momentum L= 0

SPLIT: Basis orbitals for state 1s

SPLIT: PAO cut-off radius determined from an
SPLIT: energy shift=  0.020000 Ry

   izeta = 1
                 lambda =    1.000000
                     rc =    4.828263
                 energy =   -0.449375
                kinetic =    0.925762
    potential(screened) =   -1.375137
       potential(ionic) =   -1.911235

   izeta = 2
                 rmatch =    3.854947
              splitnorm =    0.150000
                 energy =   -0.336149
                kinetic =    1.498089
    potential(screened) =   -1.834238
       potential(ionic) =   -2.406110

POLgen: Perturbative polarization orbital with L=  1

POLgen: Polarization orbital for state 1s

   izeta = 1
                     rc =    4.828263
                 energy =    0.707053
                kinetic =    1.398668
    potential(screened) =   -0.691614
       potential(ionic) =   -1.171973
atom: Total number of Sankey-type orbitals:  5

atm_pop: Valence configuration (for local Pseudopot. screening):
 1s( 1.00)                                                            
Vna: chval, zval:    1.00000   1.00000

Vna:  Cut-off radius for the neutral-atom potential:   4.828263

atom: _________________________________________________________________________

prinput: Basis input ----------------------------------------------------------

PAO.BasisType split     

%block ChemicalSpeciesLabel
    1    6 C                       # Species index, atomic number, species label
    2    1 H                       # Species index, atomic number, species label
%endblock ChemicalSpeciesLabel

%block PAO.Basis                 # Define Basis set
C                     2                    # Species label, number of l-shells
 n=2   0   2                         # n, l, Nzeta 
   4.192      3.432   
   1.000      1.000   
 n=2   1   2 P   1                   # n, l, Nzeta, Polarization, NzetaPol
   4.870      3.475   
   1.000      1.000   
H                     1                    # Species label, number of l-shells
 n=1   0   2 P   1                   # n, l, Nzeta, Polarization, NzetaPol
   4.828      3.855   
   1.000      1.000   
%endblock PAO.Basis

prinput: ----------------------------------------------------------------------

coor:   Atomic-coordinates input format  =     Cartesian coordinates
coor:                                          (in Angstroms)

siesta: Atomic coordinates (Bohr) and species
siesta:      0.59030   0.53175   1.21509  1        1
siesta:      2.63900   0.13978   1.21509  2        2
siesta:      0.40557   2.60678   1.21509  2        3
siesta:     -0.59030  -0.53175  -1.21509  1        4
siesta:     -2.63900  -0.13978  -1.21509  2        5
siesta:     -0.40557  -2.60678  -1.21509  2        6
siesta:      0.59030   0.53175   6.07547  1        7
siesta:      2.63900   0.13978   6.07547  2        8
siesta:      0.40557   2.60678   6.07547  2        9
siesta:     -0.59030  -0.53175   3.64528  1       10
siesta:     -2.63900  -0.13978   3.64528  2       11
siesta:     -0.40557  -2.60678   3.64528  2       12
siesta:      0.59030   0.53175  10.93585  1       13
siesta:      2.63900   0.13978  10.93585  2       14
siesta:      0.40557   2.60678  10.93585  2       15
siesta:     -0.59030  -0.53175   8.50566  1       16
siesta:     -2.63900  -0.13978   8.50566  2       17
siesta:     -0.40557  -2.60678   8.50566  2       18
siesta:      0.59030   0.53175  15.79623  1       19
siesta:      2.63900   0.13978  15.79623  2       20
siesta:      0.40557   2.60678  15.79623  2       21
siesta:     -0.59030  -0.53175  13.36604  1       22
siesta:     -2.63900  -0.13978  13.36604  2       23
siesta:     -0.40557  -2.60678  13.36604  2       24
siesta:      0.59030   0.53175  20.65660  1       25
siesta:      2.63900   0.13978  20.65660  2       26
siesta:      0.40557   2.60678  20.65660  2       27
siesta:     -0.59030  -0.53175  18.22642  1       28
siesta:     -2.63900  -0.13978  18.22642  2       29
siesta:     -0.40557  -2.60678  18.22642  2       30
siesta:      0.59030   0.53175  25.51698  1       31
siesta:      2.63900   0.13978  25.51698  2       32
siesta:      0.40557   2.60678  25.51698  2       33
siesta:     -0.59030  -0.53175  23.08679  1       34
siesta:     -2.63900  -0.13978  23.08679  2       35
siesta:     -0.40557  -2.60678  23.08679  2       36
siesta:      0.59030   0.53175  30.37736  1       37
siesta:      2.63900   0.13978  30.37736  2       38
siesta:      0.40557   2.60678  30.37736  2       39
siesta:     -0.59030  -0.53175  27.94717  1       40
siesta:     -2.63900  -0.13978  27.94717  2       41
siesta:     -0.40557  -2.60678  27.94717  2       42
siesta:      0.59030   0.53175  35.23774  1       43
siesta:      2.63900   0.13978  35.23774  2       44
siesta:      0.40557   2.60678  35.23774  2       45
siesta:     -0.59030  -0.53175  32.80755  1       46
siesta:     -2.63900  -0.13978  32.80755  2       47
siesta:     -0.40557  -2.60678  32.80755  2       48
siesta:      0.59030   0.53175  40.09811  1       49
siesta:      2.63900   0.13978  40.09811  2       50
siesta:      0.40557   2.60678  40.09811  2       51
siesta:     -0.59030  -0.53175  37.66793  1       52
siesta:     -2.63900  -0.13978  37.66793  2       53
siesta:     -0.40557  -2.60678  37.66793  2       54
siesta:      0.59030   0.53175  44.95849  1       55
siesta:      2.63900   0.13978  44.95849  2       56
siesta:      0.40557   2.60678  44.95849  2       57
siesta:     -0.59030  -0.53175  42.52830  1       58
siesta:     -2.63900  -0.13978  42.52830  2       59
siesta:     -0.40557  -2.60678  42.52830  2       60
siesta:      0.59030   0.53175  49.81887  1       61
siesta:      2.63900   0.13978  49.81887  2       62
siesta:      0.40557   2.60678  49.81887  2       63
siesta:     -0.59030  -0.53175  47.38868  1       64
siesta:     -2.63900  -0.13978  47.38868  2       65
siesta:     -0.40557  -2.60678  47.38868  2       66
siesta:      0.59030   0.53175  54.67925  1       67
siesta:      2.63900   0.13978  54.67925  2       68
siesta:      0.40557   2.60678  54.67925  2       69
siesta:     -0.59030  -0.53175  52.24906  1       70
siesta:     -2.63900  -0.13978  52.24906  2       71
siesta:     -0.40557  -2.60678  52.24906  2       72
siesta:      0.59030   0.53175  59.53962  1       73
siesta:      2.63900   0.13978  59.53962  2       74
siesta:      0.40557   2.60678  59.53962  2       75
siesta:     -0.59030  -0.53175  57.10944  1       76
siesta:     -2.63900  -0.13978  57.10944  2       77
siesta:     -0.40557  -2.60678  57.10944  2       78
siesta:      0.59030   0.53175  64.40000  1       79
siesta:      2.63900   0.13978  64.40000  2       80
siesta:      0.40557   2.60678  64.40000  2       81
siesta:     -0.59030  -0.53175  61.96981  1       82
siesta:     -2.63900  -0.13978  61.96981  2       83
siesta:     -0.40557  -2.60678  61.96981  2       84
siesta:      0.59030   0.53175  69.26038  1       85
siesta:      2.63900   0.13978  69.26038  2       86
siesta:      0.40557   2.60678  69.26038  2       87
siesta:     -0.59030  -0.53175  66.83019  1       88
siesta:     -2.63900  -0.13978  66.83019  2       89
siesta:     -0.40557  -2.60678  66.83019  2       90
siesta:      0.59030   0.53175  74.12076  1       91
siesta:      2.63900   0.13978  74.12076  2       92
siesta:      0.40557   2.60678  74.12076  2       93
siesta:     -0.59030  -0.53175  71.69057  1       94
siesta:     -2.63900  -0.13978  71.69057  2       95
siesta:     -0.40557  -2.60678  71.69057  2       96
siesta:      0.59030   0.53175  78.98113  1       97
siesta:      2.63900   0.13978  78.98113  2       98
siesta:      0.40557   2.60678  78.98113  2       99
siesta:     -0.59030  -0.53175  76.55095  1      100
siesta:     -2.63900  -0.13978  76.55095  2      101
siesta:     -0.40557  -2.60678  76.55095  2      102
siesta:      0.59030   0.53175  83.84151  1      103
siesta:      2.63900   0.13978  83.84151  2      104
siesta:      0.40557   2.60678  83.84151  2      105
siesta:     -0.59030  -0.53175  81.41132  1      106
siesta:     -2.63900  -0.13978  81.41132  2      107
siesta:     -0.40557  -2.60678  81.41132  2      108
siesta:      0.59030   0.53175  88.70189  1      109
siesta:      2.63900   0.13978  88.70189  2      110
siesta:      0.40557   2.60678  88.70189  2      111
siesta:     -0.59030  -0.53175  86.27170  1      112
siesta:     -2.63900  -0.13978  86.27170  2      113
siesta:     -0.40557  -2.60678  86.27170  2      114
siesta:      0.59030   0.53175  93.56227  1      115
siesta:      2.63900   0.13978  93.56227  2      116
siesta:      0.40557   2.60678  93.56227  2      117
siesta:     -0.59030  -0.53175  91.13208  1      118
siesta:     -2.63900  -0.13978  91.13208  2      119
siesta:     -0.40557  -2.60678  91.13208  2      120
siesta:      0.59030   0.53175  98.42264  1      121
siesta:      2.63900   0.13978  98.42264  2      122
siesta:      0.40557   2.60678  98.42264  2      123
siesta:     -0.59030  -0.53175  95.99246  1      124
siesta:     -2.63900  -0.13978  95.99246  2      125
siesta:     -0.40557  -2.60678  95.99246  2      126
siesta:      0.59030   0.53175 103.28302  1      127
siesta:      2.63900   0.13978 103.28302  2      128
siesta:      0.40557   2.60678 103.28302  2      129
siesta:     -0.59030  -0.53175 100.85283  1      130
siesta:     -2.63900  -0.13978 100.85283  2      131
siesta:     -0.40557  -2.60678 100.85283  2      132
siesta:      0.59030   0.53175 108.14340  1      133
siesta:      2.63900   0.13978 108.14340  2      134
siesta:      0.40557   2.60678 108.14340  2      135
siesta:     -0.59030  -0.53175 105.71321  1      136
siesta:     -2.63900  -0.13978 105.71321  2      137
siesta:     -0.40557  -2.60678 105.71321  2      138
siesta:      0.59030   0.53175 113.00378  1      139
siesta:      2.63900   0.13978 113.00378  2      140
siesta:      0.40557   2.60678 113.00378  2      141
siesta:     -0.59030  -0.53175 110.57359  1      142
siesta:     -2.63900  -0.13978 110.57359  2      143
siesta:     -0.40557  -2.60678 110.57359  2      144
siesta:      0.59030   0.53175 117.86416  1      145
siesta:      2.63900   0.13978 117.86416  2      146
siesta:      0.40557   2.60678 117.86416  2      147
siesta:     -0.59030  -0.53175 115.43397  1      148
siesta:     -2.63900  -0.13978 115.43397  2      149
siesta:     -0.40557  -2.60678 115.43397  2      150
siesta:      0.59030   0.53175 122.72453  1      151
siesta:      2.63900   0.13978 122.72453  2      152
siesta:      0.40557   2.60678 122.72453  2      153
siesta:     -0.59030  -0.53175 120.29434  1      154
siesta:     -2.63900  -0.13978 120.29434  2      155
siesta:     -0.40557  -2.60678 120.29434  2      156
siesta:      0.59030   0.53175 127.58491  1      157
siesta:      2.63900   0.13978 127.58491  2      158
siesta:      0.40557   2.60678 127.58491  2      159
siesta:     -0.59030  -0.53175 125.15472  1      160
siesta:     -2.63900  -0.13978 125.15472  2      161
siesta:     -0.40557  -2.60678 125.15472  2      162
siesta:      0.59030   0.53175 132.44529  1      163
siesta:      2.63900   0.13978 132.44529  2      164
siesta:      0.40557   2.60678 132.44529  2      165
siesta:     -0.59030  -0.53175 130.01510  1      166
siesta:     -2.63900  -0.13978 130.01510  2      167
siesta:     -0.40557  -2.60678 130.01510  2      168
siesta:      0.59030   0.53175 137.30567  1      169
siesta:      2.63900   0.13978 137.30567  2      170
siesta:      0.40557   2.60678 137.30567  2      171
siesta:     -0.59030  -0.53175 134.87548  1      172
siesta:     -2.63900  -0.13978 134.87548  2      173
siesta:     -0.40557  -2.60678 134.87548  2      174
siesta:      0.59030   0.53175 142.16604  1      175
siesta:      2.63900   0.13978 142.16604  2      176
siesta:      0.40557   2.60678 142.16604  2      177
siesta:     -0.59030  -0.53175 139.73585  1      178
siesta:     -2.63900  -0.13978 139.73585  2      179
siesta:     -0.40557  -2.60678 139.73585  2      180
siesta:      0.59030   0.53175 147.02642  1      181
siesta:      2.63900   0.13978 147.02642  2      182
siesta:      0.40557   2.60678 147.02642  2      183
siesta:     -0.59030  -0.53175 144.59623  1      184
siesta:     -2.63900  -0.13978 144.59623  2      185
siesta:     -0.40557  -2.60678 144.59623  2      186
siesta:      0.59030   0.53175 151.88680  1      187
siesta:      2.63900   0.13978 151.88680  2      188
siesta:      0.40557   2.60678 151.88680  2      189
siesta:     -0.59030  -0.53175 149.45661  1      190
siesta:     -2.63900  -0.13978 149.45661  2      191
siesta:     -0.40557  -2.60678 149.45661  2      192
siesta:      0.59030   0.53175 156.74718  1      193
siesta:      2.63900   0.13978 156.74718  2      194
siesta:      0.40557   2.60678 156.74718  2      195
siesta:     -0.59030  -0.53175 154.31699  1      196
siesta:     -2.63900  -0.13978 154.31699  2      197
siesta:     -0.40557  -2.60678 154.31699  2      198
siesta:      0.59030   0.53175 161.60755  1      199
siesta:      2.63900   0.13978 161.60755  2      200
siesta:      0.40557   2.60678 161.60755  2      201
siesta:     -0.59030  -0.53175 159.17736  1      202
siesta:     -2.63900  -0.13978 159.17736  2      203
siesta:     -0.40557  -2.60678 159.17736  2      204
siesta:      0.59030   0.53175 166.46793  1      205
siesta:      2.63900   0.13978 166.46793  2      206
siesta:      0.40557   2.60678 166.46793  2      207
siesta:     -0.59030  -0.53175 164.03774  1      208
siesta:     -2.63900  -0.13978 164.03774  2      209
siesta:     -0.40557  -2.60678 164.03774  2      210
siesta:      0.59030   0.53175 171.32831  1      211
siesta:      2.63900   0.13978 171.32831  2      212
siesta:      0.40557   2.60678 171.32831  2      213
siesta:     -0.59030  -0.53175 168.89812  1      214
siesta:     -2.63900  -0.13978 168.89812  2      215
siesta:     -0.40557  -2.60678 168.89812  2      216
siesta:      0.59030   0.53175 176.18869  1      217
siesta:      2.63900   0.13978 176.18869  2      218
siesta:      0.40557   2.60678 176.18869  2      219
siesta:     -0.59030  -0.53175 173.75850  1      220
siesta:     -2.63900  -0.13978 173.75850  2      221
siesta:     -0.40557  -2.60678 173.75850  2      222
siesta:      0.59030   0.53175 181.04906  1      223
siesta:      2.63900   0.13978 181.04906  2      224
siesta:      0.40557   2.60678 181.04906  2      225
siesta:     -0.59030  -0.53175 178.61887  1      226
siesta:     -2.63900  -0.13978 178.61887  2      227
siesta:     -0.40557  -2.60678 178.61887  2      228
siesta:      0.59030   0.53175 185.90944  1      229
siesta:      2.63900   0.13978 185.90944  2      230
siesta:      0.40557   2.60678 185.90944  2      231
siesta:     -0.59030  -0.53175 183.47925  1      232
siesta:     -2.63900  -0.13978 183.47925  2      233
siesta:     -0.40557  -2.60678 183.47925  2      234
siesta:      0.59030   0.53175 190.76982  1      235
siesta:      2.63900   0.13978 190.76982  2      236
siesta:      0.40557   2.60678 190.76982  2      237
siesta:     -0.59030  -0.53175 188.33963  1      238
siesta:     -2.63900  -0.13978 188.33963  2      239
siesta:     -0.40557  -2.60678 188.33963  2      240
siesta:      0.59030   0.53175 195.63020  1      241
siesta:      2.63900   0.13978 195.63020  2      242
siesta:      0.40557   2.60678 195.63020  2      243
siesta:     -0.59030  -0.53175 193.20001  1      244
siesta:     -2.63900  -0.13978 193.20001  2      245
siesta:     -0.40557  -2.60678 193.20001  2      246
siesta:      0.59030   0.53175 200.49057  1      247
siesta:      2.63900   0.13978 200.49057  2      248
siesta:      0.40557   2.60678 200.49057  2      249
siesta:     -0.59030  -0.53175 198.06038  1      250
siesta:     -2.63900  -0.13978 198.06038  2      251
siesta:     -0.40557  -2.60678 198.06038  2      252
siesta:      0.59030   0.53175 205.35095  1      253
siesta:      2.63900   0.13978 205.35095  2      254
siesta:      0.40557   2.60678 205.35095  2      255
siesta:     -0.59030  -0.53175 202.92076  1      256
siesta:     -2.63900  -0.13978 202.92076  2      257
siesta:     -0.40557  -2.60678 202.92076  2      258
siesta:      0.59030   0.53175 210.21133  1      259
siesta:      2.63900   0.13978 210.21133  2      260
siesta:      0.40557   2.60678 210.21133  2      261
siesta:     -0.59030  -0.53175 207.78114  1      262
siesta:     -2.63900  -0.13978 207.78114  2      263
siesta:     -0.40557  -2.60678 207.78114  2      264
siesta:      0.59030   0.53175 215.07171  1      265
siesta:      2.63900   0.13978 215.07171  2      266
siesta:      0.40557   2.60678 215.07171  2      267
siesta:     -0.59030  -0.53175 212.64152  1      268
siesta:     -2.63900  -0.13978 212.64152  2      269
siesta:     -0.40557  -2.60678 212.64152  2      270
siesta:      0.59030   0.53175 219.93208  1      271
siesta:      2.63900   0.13978 219.93208  2      272
siesta:      0.40557   2.60678 219.93208  2      273
siesta:     -0.59030  -0.53175 217.50189  1      274
siesta:     -2.63900  -0.13978 217.50189  2      275
siesta:     -0.40557  -2.60678 217.50189  2      276
siesta:      0.59030   0.53175 224.79246  1      277
siesta:      2.63900   0.13978 224.79246  2      278
siesta:      0.40557   2.60678 224.79246  2      279
siesta:     -0.59030  -0.53175 222.36227  1      280
siesta:     -2.63900  -0.13978 222.36227  2      281
siesta:     -0.40557  -2.60678 222.36227  2      282
siesta:      0.59030   0.53175 229.65284  1      283
siesta:      2.63900   0.13978 229.65284  2      284
siesta:      0.40557   2.60678 229.65284  2      285
siesta:     -0.59030  -0.53175 227.22265  1      286
siesta:     -2.63900  -0.13978 227.22265  2      287
siesta:     -0.40557  -2.60678 227.22265  2      288
siesta:      0.59030   0.53175 234.51322  1      289
siesta:      2.63900   0.13978 234.51322  2      290
siesta:      0.40557   2.60678 234.51322  2      291
siesta:     -0.59030  -0.53175 232.08303  1      292
siesta:     -2.63900  -0.13978 232.08303  2      293
siesta:     -0.40557  -2.60678 232.08303  2      294
siesta:      0.59030   0.53175 239.37359  1      295
siesta:      2.63900   0.13978 239.37359  2      296
siesta:      0.40557   2.60678 239.37359  2      297
siesta:     -0.59030  -0.53175 236.94340  1      298
siesta:     -2.63900  -0.13978 236.94340  2      299
siesta:     -0.40557  -2.60678 236.94340  2      300
siesta:      0.59030   0.53175 244.23397  1      301
siesta:      2.63900   0.13978 244.23397  2      302
siesta:      0.40557   2.60678 244.23397  2      303
siesta:     -0.59030  -0.53175 241.80378  1      304
siesta:     -2.63900  -0.13978 241.80378  2      305
siesta:     -0.40557  -2.60678 241.80378  2      306
siesta:      0.59030   0.53175 249.09435  1      307
siesta:      2.63900   0.13978 249.09435  2      308
siesta:      0.40557   2.60678 249.09435  2      309
siesta:     -0.59030  -0.53175 246.66416  1      310
siesta:     -2.63900  -0.13978 246.66416  2      311
siesta:     -0.40557  -2.60678 246.66416  2      312
siesta:      0.59030   0.53175 253.95473  1      313
siesta:      2.63900   0.13978 253.95473  2      314
siesta:      0.40557   2.60678 253.95473  2      315
siesta:     -0.59030  -0.53175 251.52454  1      316
siesta:     -2.63900  -0.13978 251.52454  2      317
siesta:     -0.40557  -2.60678 251.52454  2      318
siesta:      0.59030   0.53175 258.81510  1      319
siesta:      2.63900   0.13978 258.81510  2      320
siesta:      0.40557   2.60678 258.81510  2      321
siesta:     -0.59030  -0.53175 256.38491  1      322
siesta:     -2.63900  -0.13978 256.38491  2      323
siesta:     -0.40557  -2.60678 256.38491  2      324
siesta:      0.59030   0.53175 263.67548  1      325
siesta:      2.63900   0.13978 263.67548  2      326
siesta:      0.40557   2.60678 263.67548  2      327
siesta:     -0.59030  -0.53175 261.24529  1      328
siesta:     -2.63900  -0.13978 261.24529  2      329
siesta:     -0.40557  -2.60678 261.24529  2      330
siesta:      0.59030   0.53175 268.53586  1      331
siesta:      2.63900   0.13978 268.53586  2      332
siesta:      0.40557   2.60678 268.53586  2      333
siesta:     -0.59030  -0.53175 266.10567  1      334
siesta:     -2.63900  -0.13978 266.10567  2      335
siesta:     -0.40557  -2.60678 266.10567  2      336
siesta:      0.59030   0.53175 273.39624  1      337
siesta:      2.63900   0.13978 273.39624  2      338
siesta:      0.40557   2.60678 273.39624  2      339
siesta:     -0.59030  -0.53175 270.96605  1      340
siesta:     -2.63900  -0.13978 270.96605  2      341
siesta:     -0.40557  -2.60678 270.96605  2      342
siesta:      0.59030   0.53175 278.25661  1      343
siesta:      2.63900   0.13978 278.25661  2      344
siesta:      0.40557   2.60678 278.25661  2      345
siesta:     -0.59030  -0.53175 275.82642  1      346
siesta:     -2.63900  -0.13978 275.82642  2      347
siesta:     -0.40557  -2.60678 275.82642  2      348
siesta:      0.59030   0.53175 283.11699  1      349
siesta:      2.63900   0.13978 283.11699  2      350
siesta:      0.40557   2.60678 283.11699  2      351
siesta:     -0.59030  -0.53175 280.68680  1      352
siesta:     -2.63900  -0.13978 280.68680  2      353
siesta:     -0.40557  -2.60678 280.68680  2      354
siesta:      0.59030   0.53175 287.97737  1      355
siesta:      2.63900   0.13978 287.97737  2      356
siesta:      0.40557   2.60678 287.97737  2      357
siesta:     -0.59030  -0.53175 285.54718  1      358
siesta:     -2.63900  -0.13978 285.54718  2      359
siesta:     -0.40557  -2.60678 285.54718  2      360
siesta:      0.59030   0.53175 292.83775  1      361
siesta:      2.63900   0.13978 292.83775  2      362
siesta:      0.40557   2.60678 292.83775  2      363
siesta:     -0.59030  -0.53175 290.40756  1      364
siesta:     -2.63900  -0.13978 290.40756  2      365
siesta:     -0.40557  -2.60678 290.40756  2      366
siesta:      0.59030   0.53175 297.69812  1      367
siesta:      2.63900   0.13978 297.69812  2      368
siesta:      0.40557   2.60678 297.69812  2      369
siesta:     -0.59030  -0.53175 295.26793  1      370
siesta:     -2.63900  -0.13978 295.26793  2      371
siesta:     -0.40557  -2.60678 295.26793  2      372
siesta:      0.59030   0.53175 302.55850  1      373
siesta:      2.63900   0.13978 302.55850  2      374
siesta:      0.40557   2.60678 302.55850  2      375
siesta:     -0.59030  -0.53175 300.12831  1      376
siesta:     -2.63900  -0.13978 300.12831  2      377
siesta:     -0.40557  -2.60678 300.12831  2      378
siesta:      0.59030   0.53175 307.41888  1      379
siesta:      2.63900   0.13978 307.41888  2      380
siesta:      0.40557   2.60678 307.41888  2      381
siesta:     -0.59030  -0.53175 304.98869  1      382
siesta:     -2.63900  -0.13978 304.98869  2      383
siesta:     -0.40557  -2.60678 304.98869  2      384

siesta: System type = chain     

initatomlists: Number of atoms, orbitals, and projectors:    384  2944  4352

siesta: ******************** Simulation parameters ****************************
siesta:
siesta: The following are some of the parameters of the simulation.
siesta: A complete list of the parameters used, including default values,
siesta: can be found in file out.fdf
siesta:
redata: Non-Collinear-spin run           =     F
redata: SpinPolarized (Up/Down) run      =     F
redata: Number of spin components        =     1
redata: Long output                      =     F
redata: Number of Atomic Species         =        2
redata: Charge density info will appear in .RHO file
redata: Write Mulliken Pop.              =     NO
redata: Mesh Cutoff                      =   100.0000  Ry
redata: Net charge of the system         =     0.0000 |e|
redata: Min. number of SCF Iter          =        0
redata: Max. number of SCF Iter          =       50
redata: Mix DM or H after convergence    =     F
redata: Recompute H after scf cycle      =     F
redata: Performing Pulay mixing using    =     3 iterations
redata: Mix DM in first SCF step ?       =     F
redata: Write Pulay info on disk?        =     F
redata: Discard 1st Pulay DM after  kick =     F
redata: New DM Mixing Weight             =     0.3000
redata: New DM Occupancy tolerance       = 0.000000000001
redata: No kicks to SCF
redata: DM Mixing Weight for Kicks       =     0.5000
redata: DM Tolerance for SCF             =     0.000100
redata: Require (free) Energy convergence in SCF =     F
redata: DM (free)Energy tolerance for SCF =     0.000010 eV
redata: Require Harris convergence for SCF =     F
redata: DM Harris energy tolerance for SCF =     0.000010 eV
redata: Using Saved Data (generic)   =     F
redata: Use continuation files for DM    =     F
redata: Neglect nonoverlap interactions  =     F
redata: Method of Calculation            =     QETSc
redata: Fix the spin of the system       =     F
redata: Dynamics option                  =     CG coord. optimization
redata: Variable cell                    =     F
redata: Use continuation files for CG    =     F
redata: Max atomic displ per move        =     0.1890  Bohr
redata: Maximum number of CG moves       =       50
redata: Force tolerance                  =     0.0004  Ry/Bohr
redata: ***********************************************************************
Total number of electrons:   768.000000
Total ionic charge:   768.000000

* ProcessorY, Blocksize:    4 184


* Orbital distribution balance (max,min):   184   184

 Kpoints in:  1 . Kpoints trimmed:  1

siesta: k-grid: Number of k-points =     1
siesta: k-grid: Cutoff (effective) =    10.000 Ang
siesta: k-grid: Supercell and displacements
siesta: k-grid:    1   0   0      0.000
siesta: k-grid:    0   1   0      0.000
siesta: k-grid:    0   0   1      0.000

                     ====================================
                        Begin CG opt. move =      0
                     ====================================

outcell: Unit cell vectors (Ang):
       20.000000    0.000000    0.000000
        0.000000   20.000000    0.000000
        0.000000    0.000000  164.608000

outcell: Cell vector modules (Ang)   :   20.000000   20.000000  164.608000
outcell: Cell angles (23,13,12) (deg):     90.0000     90.0000     90.0000
outcell: Cell volume (Ang**3)        :  65843.2000
New_DM. Step:     1
Initializing Density Matrix...
New grid distribution:   1
           1       1:   64    1:   16    1:  125
           2       1:   64    1:   16  126:  250
           3       1:   64    1:   16  251:  375
           4       1:   64    1:   16  376:  500
           5       1:   64   17:   32    1:  125
           6       1:   64   17:   32  126:  250
           7       1:   64   17:   32  251:  375
           8       1:   64   17:   32  376:  500
           9       1:   64   33:   48    1:  125
          10       1:   64   33:   48  126:  250
          11       1:   64   33:   48  251:  375
          12       1:   64   33:   48  376:  500
          13       1:   64   49:   64    1:  125
          14       1:   64   49:   64  126:  250
          15       1:   64   49:   64  251:  375
          16       1:   64   49:   64  376:  500

InitMesh: MESH =   128 x   128 x  1000 =    16384000
InitMesh: (bp) =    64 x    64 x   500 =     2048000
InitMesh: Mesh cutoff (required, used) =   100.000   102.000 Ry
ExtMesh (bp) on 0 =   100 x    52 x   157 =      816400
New grid distribution:   2
           1       1:   64    8:   64    1:   63
           2       1:   64    1:    7  376:  438
           3       1:   64    1:    7   64:  125
           4       1:   64    8:   64  439:  500
           5       1:   64    1:    7  126:  188
           6       1:   64    1:    7  439:  500
           7       1:   64    8:   64  314:  375
           8       1:   64    8:   64  376:  438
           9       1:   64    8:   64   64:  125
          10       1:   64    8:   64  126:  188
          11       1:   64    1:    7    1:   63
          12       1:   64    1:    7  189:  250
          13       1:   64    1:    7  251:  313
          14       1:   64    8:   64  189:  250
          15       1:   64    8:   64  251:  313
          16       1:   64    1:    7  314:  375
New grid distribution:   3
           1       1:   64    1:   12  376:  437
           2       1:   64   13:   64  126:  187
           3       1:   64    1:   12  313:  375
           4       1:   64   13:   64  438:  500
           5       1:   64    1:   12  438:  500
           6       1:   64   13:   64  188:  250
           7       1:   64   13:   64  251:  312
           8       1:   64    1:   12  126:  187
           9       1:   64   13:   64   63:  125
          10       1:   64    1:   12   63:  125
          11       1:   64    1:   12    1:   62
          12       1:   64   13:   64  376:  437
          13       1:   64   13:   64    1:   62
          14       1:   64    1:   12  188:  250
          15       1:   64   13:   64  313:  375
          16       1:   64    1:   12  251:  312
Setting up quadratic distribution...
ExtMesh (bp) on 0 =   100 x    93 x    95 =      883500
PhiOnMesh: Number of (b)points on node 0 =               229824
PhiOnMesh: nlist on node 0 =               419980
QETSC: Last update           = Dec 15, 2016
QETSC: Number of ranks       =          16
QETSC: Number of slices      =          16
QETSC: Number of ranks/slice =           1
QETSC: Number of evals/slice =  24.00
QETSC: Number of req. evals  =         384
QETSC: Number of rows (all)  =        2944
QETSC: Number of rows (max)  =         184
QETSC: Number of rows (min)  =         184
QETSC: Density option        =           0
QETSC: Bin type given        =           0
QETSC: Inertia type          =           0
QETSC: Infinity type         =           0
QETSC: Write option          =           1
QETSC: Bin buffer given      =   0.05
QETSC: Diff thresh           =   0.00
QETSC: Number of nonzeros    =      609408
QETSC: Nonzero % (all)       =   7.03
QETSC: Nonzero % (max)       =   7.03
QETSC: Nonzero % (min)       =   7.03
 QETSC: Bins             =
-2.2999999999999998E+00
-2.1562500000000000E+00
-2.0124999999999997E+00
-1.8687499999999999E+00
-1.7249999999999999E+00
-1.5812499999999998E+00
-1.4375000000000000E+00
-1.2937500000000000E+00
-1.1499999999999999E+00
-1.0062499999999999E+00
-8.6249999999999993E-01
-7.1875000000000000E-01
-5.7499999999999996E-01
-4.3124999999999997E-01
-2.8749999999999998E-01
-1.4374999999999999E-01
 0.0000000000000000E+00
QETSC: Started iter            1
QETSC: Bin type used         =           0
QETSC: Buffer used           =   5.0000000000000003E-02
QETSC: EPS interval          =    -2.300,     0.000
QETSC: Inertia type          =           0
SLEPc: EPSSolve time = 12 3.945e-06
SLEPc: EPSSolve time = 13 4.277e-06
SLEPc: EPSSolve time = 15 3.357e-06
SLEPc: EPSSolve time = 14 3.859e-06
SLEPc: EPSSolve time = 1 4.037e-06
SLEPc: EPSSolve time = 11 4.078e-06
SLEPc: EPSSolve time = 0 4.654e-06
SLEPc: EPSSolve time = 3 4.254e-06
SLEPc: EPSSolve time = 2 3.629e-06
SLEPc: EPSSolve time = 6 3.526e+00
SLEPc: EPSSolve time = 4 4.224e+00
SLEPc: EPSSolve time = 5 4.359e+00
SLEPc: EPSSolve time = 7 6.324e+00
SLEPc: EPSSolve time = 8 1.033e+01
SLEPc: EPSSolve time = 9 1.229e+01
SLEPc: EPSSolve time = 10 1.714e+01
 QETSC: Eigenvalues         =
-1.6792898009683723E+00
-1.6789996922250174E+00
-1.6789996922250150E+00
-1.6781294751270726E+00
-1.6781294751270701E+00
-1.6766794797057287E+00
-1.6766794797057267E+00
-1.6746505299675234E+00
-1.6746499993000381E+00
-1.6720426298959798E+00
-1.6720426298959776E+00
-1.6688576336679180E+00
-1.6688576336679171E+00
-1.6650966130398770E+00
-1.6650966130398759E+00
-1.6607614371024020E+00
-1.6607609794869627E+00
-1.6558533903325912E+00
-1.6558533903325900E+00
-1.6503754914024269E+00
-1.6503754914024260E+00
-1.6443302401572741E+00
-1.6443302401572717E+00
-1.6377295940554892E+00
-1.6377119801211153E+00
-1.6305507782508695E+00
-1.6305507782508648E+00
-1.6228243859141620E+00
-1.6228243859141611E+00
-1.6145463468382246E+00
-1.6145463468382231E+00
-1.6057238485298018E+00
-1.6057202689753476E+00
-1.5963576464339819E+00
-1.5963576464339773E+00
-1.5864600543452081E+00
-1.5864600543452063E+00
-1.5760371562120985E+00
-1.5760371562120925E+00
-1.5650980815262328E+00
-1.5650976947079636E+00
-1.5536524078177116E+00
-1.5536524078177101E+00
-1.5417122890804111E+00
-1.5417122890804074E+00
-1.5292907595560790E+00
-1.5292907595560761E+00
-1.5164053129189865E+00
-1.5164006733068509E+00
-1.5030664732753622E+00
-1.5030664732753607E+00
-1.4893014430983393E+00
-1.4893014430983298E+00
-1.4751314672196447E+00
-1.4751314672196352E+00
-1.4605859526477849E+00
-1.4605823237561040E+00
-1.4456919638164250E+00
-1.4456919638164236E+00
-1.4304934842994259E+00
-1.4304934842994170E+00
-1.4150346797642017E+00
-1.4150346797641937E+00
-1.3993708446340836E+00
-1.3993706328007876E+00
-1.3835682609316828E+00
-1.3835682609316813E+00
-1.3677079616496528E+00
-1.3677079616496475E+00
-1.3518879007374889E+00
-1.3518879007374847E+00
-1.3362274355465422E+00
-1.3362268698820976E+00
-1.3208696050386457E+00
-1.3208696050386406E+00
-1.3059871485162675E+00
-1.3059871485162600E+00
-1.2917808422030981E+00
-1.2917808422030945E+00
-1.2784800720487743E+00
-1.2784754197942683E+00
-1.2663203998453187E+00
-1.2663203998453123E+00
-1.2555463253085455E+00
-1.2555463253085408E+00
-1.2470904146234747E+00
-1.2469283454191267E+00
-1.2469283454191262E+00
-1.2464447289491336E+00
-1.2464447289491314E+00
-1.2463579608698550E+00
-1.2463579608698545E+00
-1.2456472154882039E+00
-1.2456472154882019E+00
-1.2445511329937791E+00
-1.2445490155310299E+00
-1.2431719955249063E+00
-1.2431719955249012E+00
-1.2415397679311742E+00
-1.2415397679311722E+00
-1.2396878027010505E+00
-1.2396878027010432E+00
-1.2388873551662669E+00
-1.2388868415231291E+00
-1.2376603580876568E+00
-1.2376595314610388E+00
-1.2355113766498853E+00
-1.2355113766498771E+00
-1.2333110550986603E+00
-1.2333110550986541E+00
-1.2331706658876194E+00
-1.2331706658876143E+00
-1.2311447328227436E+00
-1.2311447328227370E+00
-1.2291398955564756E+00
-1.2291398955564670E+00
-1.2291355728970446E+00
-1.2291010883132145E+00
-1.2273622232059094E+00
-1.2273622232059054E+00
-1.2266368392047831E+00
-1.2266368392047780E+00
-1.2260345857478827E+00
-1.2260345857478752E+00
-1.2254460204095718E+00
-1.2254438109528007E+00
-1.2253232816404236E+00
-1.2253232816404138E+00
-1.0713228956673884E+00
-1.0710499858299585E+00
-1.0710499858299560E+00
-1.0702317714422147E+00
-1.0702317714422129E+00
-1.0688698019162559E+00
-1.0688698019162550E+00
-1.0669667197650816E+00
-1.0669666263856727E+00
-1.0645260473966407E+00
-1.0645260473966374E+00
-1.0615526824108166E+00
-1.0615526824108144E+00
-1.0580524673304876E+00
-1.0580524673304852E+00
-1.0540327137390699E+00
-1.0540322222397609E+00
-1.0495009803630553E+00
-1.0495009803630519E+00
-1.0444675933961418E+00
-1.0444675933961394E+00
-1.0389432685610500E+00
-1.0389432685610465E+00
-1.0329674555827457E+00
-1.0329131096867461E+00
-1.0264726340792358E+00
-1.0264726340792316E+00
-1.0195559391056215E+00
-1.0195559391056181E+00
-1.0122073346969034E+00
-1.0122073346968976E+00
-1.0044460043779384E+00
-1.0044458070891924E+00
-9.9629266224550528E-01
-9.9629266224550117E-01
-9.8777067184118250E-01
-9.8777067184117906E-01
-9.8740052528637667E-01
-9.8740052528636701E-01
-9.8643241425744377E-01
-9.8643241425744055E-01
-9.8637206098429708E-01
-9.8636866725049488E-01
-9.8357562706214607E-01
-9.8357562706212787E-01
-9.8327397795441207E-01
-9.8327397795440141E-01
-9.7926084190886031E-01
-9.7926084190884466E-01
-9.7890529484444067E-01
-9.7890529484443389E-01
-9.7781029778969264E-01
-9.7780937258140099E-01
-9.7366042164207778E-01
-9.7366042164206934E-01
-9.7002753701652444E-01
-9.7002753701651312E-01
-9.6972320410335333E-01
-9.6972268769344394E-01
-9.6698897826488439E-01
-9.6698654261686234E-01
-9.6025527154818902E-01
-9.6025527154818457E-01
-9.6003046783953805E-01
-9.6003046783952817E-01
-9.5943173734619913E-01
-9.5943173734619336E-01
-9.5115754962968735E-01
-9.5115754962967269E-01
-9.5053350911698686E-01
-9.5053350911698031E-01
-9.4801813545948321E-01
-9.4801813545947355E-01
-9.4230962176934241E-01
-9.4230962176932465E-01
-9.4059267006837388E-01
-9.4059267006836644E-01
-9.3426065352426235E-01
-9.3426041173873176E-01
-9.3301559336653095E-01
-9.3301458918300795E-01
-9.3047065682151098E-01
-9.3046975926727282E-01
-9.2338717302737194E-01
-9.2338717302710016E-01
-9.2020615535249395E-01
-9.2020615535249106E-01
-9.1906379254830517E-01
-9.1906379254825399E-01
-9.1352797951748710E-01
-9.1352797951726128E-01
-9.0984309357168502E-01
-9.0984309357167792E-01
-9.0353085306281267E-01
-9.0353085306274727E-01
-9.0274421172676089E-01
-9.0274421172671637E-01
-8.9942606175318884E-01
-8.9942606175317619E-01
-8.9348463382118182E-01
-8.9347944532032963E-01
-8.8900589749402781E-01
-8.8899887660550569E-01
-8.8561291607276371E-01
-8.8561291607275561E-01
-8.8346171752137947E-01
-8.8346171752136349E-01
-8.7862143536072235E-01
-8.7862143536065140E-01
-8.7354543096126314E-01
-8.7354543096092896E-01
-8.6833425672704101E-01
-8.6833425672703268E-01
-8.6804690445358035E-01
-8.6789137554837259E-01
-8.6380305140267499E-01
-8.6380305140261981E-01
-8.5819311968826073E-01
-8.5819311968825784E-01
-8.5430680711531115E-01
-8.5429329425999179E-01
-8.5010324537694226E-01
-8.5010324537693183E-01
-8.4825098361636220E-01
-8.4825087536716870E-01
-8.4509662912185046E-01
-8.4509662912184302E-01
-8.3856051981092761E-01
-8.3856051981092183E-01
-8.3624734800095213E-01
-8.3624734800094724E-01
-8.3229911840557513E-01
-8.3229911840555926E-01
-8.2917381577907379E-01
-8.2917381577906513E-01
-8.2780051029691537E-01
-8.2780051029691282E-01
-8.2014091292779845E-01
-8.2014091292779312E-01
-8.1979787362882528E-01
-8.1979723832528872E-01
-8.1483981700253083E-01
-8.1483981700251995E-01
-8.1227241803305406E-01
-8.1227241803304329E-01
-8.1151518046842763E-01
-8.1150285950138001E-01
-8.0525104093304856E-01
-8.0525104093303645E-01
-8.0332142504601267E-01
-8.0332142504600934E-01
-7.9875106300205612E-01
-7.9875106300204790E-01
-7.9801350807105009E-01
-7.9801321300489148E-01
-7.9561640395127231E-01
-7.9561640395126487E-01
-7.9278399810980549E-01
-7.9277948573018397E-01
-7.8842620048548417E-01
-7.8842620048547829E-01
-7.8734415773963828E-01
-7.8734415773963651E-01
-7.8243170068143564E-01
-7.8243170068142831E-01
-7.8211568233366124E-01
-7.8211568233365780E-01
-7.8177966912193586E-01
-7.8177261011080579E-01
-7.7803085705938624E-01
-7.7803085705937358E-01
-7.7568391594861019E-01
-7.7568391594860420E-01
-7.7416375497129952E-01
-7.7407952175653882E-01
-7.7068003486344139E-01
-7.7068003486343006E-01
-7.7015911279337423E-01
-7.7015911279336990E-01
-7.6767858036620906E-01
-7.6767858036620151E-01
-7.6745110280266171E-01
-7.6745110280265416E-01
-7.6520298288903843E-01
-7.6520298288903632E-01
-7.6508623200016657E-01
-7.6508623200015990E-01
-7.6287234945005467E-01
-7.6287197653910510E-01
-7.6100516989475286E-01
-7.6100516989474509E-01
-7.6080881789355137E-01
-7.6080831886212086E-01
-7.5945541382471693E-01
-7.5945541382470982E-01
-7.5819525951124478E-01
-7.5819525951123823E-01
-7.5720037474314239E-01
-7.5719955580742482E-01
-7.5696100996229287E-01
-7.5696100996228821E-01
-7.5644861223804716E-01
-7.5644861223804416E-01
-7.5592428903281639E-01
-7.5592428903281128E-01
-7.5561469461538266E-01
-7.5561469461538111E-01
-7.5551233467998868E-01
-7.5432972187096947E-01
-7.5432972187096181E-01
-7.5363839845206015E-01
-7.5363839845205538E-01
-7.5081232335702497E-01
-7.5081232335702108E-01
-7.4845001194273186E-01
-7.4844835303854840E-01
-7.4651122294940409E-01
-7.4651122294940264E-01
-7.4495779040357524E-01
-7.4495779040357246E-01
-7.4374691226460732E-01
-7.4374691226460454E-01
-7.4305858074299713E-01
-7.4305801850391995E-01
-7.4289389472807854E-01
-7.4276695911793589E-01
-7.4216931060169777E-01
-7.4216931060169611E-01
-7.4172819349613028E-01
-7.4172524935732986E-01
-7.4172524935732786E-01
-7.4171036453526118E-01
-7.4171036453525951E-01
-7.4165906361811762E-01
-7.4165906361811529E-01
-7.4158086979937332E-01
-7.4158086979937143E-01
-7.4148721195145995E-01
-7.4148615763348691E-01
-7.4145346341215856E-01
-7.4145346341215745E-01
-7.4139173159232674E-01
-7.4139173159232508E-01
-7.4131738596705632E-01
-7.4131661462699139E-01
-7.4131545045257408E-01
-7.4131545045257174E-01
-7.4128138157037804E-01
-7.4128138157037560E-01
-7.3392806673236122E-01
-7.3392806673235478E-01
-7.2719724255039975E-01
-7.2719724255039653E-01
-7.2307034828067829E-01
-7.2307034828067618E-01
-7.2167947510273522E-01
QETSC: Iter time (min)       =     1  21.29
QETSC: Iter time (max)       =     1  21.29
QETSC: Iter time (avg)       =     1  21.29
QETSC: Num. of conv. evals   =     1         384
QETSC: Eigenvalue (1)        =     1  -1.6792898009683723E+00
QETSC: Eigenvalue (nocc)     =     1  -7.2167947510273522E-01
QETSC: Max differrence       =     1   1.6792898009683723E+00
QETSC: Safe iteration        =     1      F
QETSC: Finished iter         =           1
 *****************************************************************
QETSC: SCF iter time=  21.440

siesta: Program's energy decomposition (eV):
siesta: Ebs     =    -10972.813260
siesta: Eions   =     37515.017267
siesta: Ena     =      8051.360606
siesta: Ekin    =     15139.467002
siesta: Enl     =     -1077.770530
siesta: DEna    =         0.000018
siesta: DUscf   =         0.000000
siesta: DUext   =         0.000000
siesta: Exc     =     -8032.963215
siesta: eta*DQ  =         0.000000
siesta: Emadel  =         0.000000
siesta: Emeta   =         0.000000
siesta: Emolmec =         0.000000
siesta: Ekinion =         0.000000
siesta: Eharris =    -23995.195586
siesta: Etot    =    -23434.923385
siesta: FreeEng =    -23434.923385
timer: Routine,Calls,Time,% =    IterSCF     1      29.680  54.01
 QETSC: Bins             =
-2.2999999999999998E+00
-2.1562500000000000E+00
-2.0124999999999997E+00
-1.8687499999999999E+00
-1.7249999999999999E+00
-1.5812499999999998E+00
-1.4375000000000000E+00
-1.2937500000000000E+00
-1.1499999999999999E+00
-1.0062499999999999E+00
-8.6249999999999993E-01
-7.1875000000000000E-01
-5.7499999999999996E-01
-4.3124999999999997E-01
-2.8749999999999998E-01
-1.4374999999999999E-01
 0.0000000000000000E+00
QETSC: Started iter            2
QETSC: Bin type used         =           0
QETSC: Buffer used           =   1.6792898009683723E+00
QETSC: EPS interval          =    -2.300,     0.000
QETSC: Inertia type          =           0
SLEPc: EPSSolve time = 5 3.801e-06
SLEPc: EPSSolve time = 1 3.788e-06
SLEPc: EPSSolve time = 0 3.721e-06
SLEPc: EPSSolve time = 15 2.611e-06
SLEPc: EPSSolve time = 2 3.480e-06
SLEPc: EPSSolve time = 4 3.705e-06
SLEPc: EPSSolve time = 6 4.176e-06
SLEPc: EPSSolve time = 3 3.772e-06
SLEPc: EPSSolve time = 14 2.635e+00
SLEPc: EPSSolve time = 7 4.246e+00
SLEPc: EPSSolve time = 8 4.263e+00
SLEPc: EPSSolve time = 9 7.747e+00
SLEPc: EPSSolve time = 11 8.273e+00
SLEPc: EPSSolve time = 10 8.719e+00
SLEPc: EPSSolve time = 12 2.028e+01
SLEPc: EPSSolve time = 13 4.103e+01
 QETSC: Eigenvalues         =
-1.2740833956465085E+00
-1.2737830711364937E+00
-1.2737830711088427E+00
-1.2728822067925991E+00
-1.2728822067869778E+00
-1.2713811338667549E+00
-1.2713811338658336E+00
-1.2692810696386216E+00
-1.2692797616733098E+00
-1.2665808647171359E+00
-1.2665808647164458E+00
-1.2632835650017795E+00
-1.2632835650015246E+00
-1.2593898990823087E+00
-1.2593898990819810E+00
-1.2549019477431964E+00
-1.2549012135203608E+00
-1.2498206905186919E+00
-1.2498206905184941E+00
-1.2441497172619664E+00
-1.2441497172615268E+00
-1.2378916032293259E+00
-1.2378916032291527E+00
-1.2310614118712255E+00
-1.2310381336283078E+00
-1.2236282393366209E+00
-1.2236282393361875E+00
-1.2156316373783276E+00
-1.2156316373780747E+00
-1.2070652632723948E+00
-1.2070652632723229E+00
-1.1979374945853500E+00
-1.1979329270040640E+00
-1.1882484503966064E+00
-1.1882484503964923E+00
-1.1780129482223263E+00
-1.1780129482222763E+00
-1.1672378077171770E+00
-1.1672378077171381E+00
-1.1559339920308618E+00
-1.1559328957303714E+00
-1.1441117941558725E+00
-1.1441117941557819E+00
-1.1317865792138608E+00
-1.1317865792137765E+00
-1.1189736269936739E+00
-1.1189736269935930E+00
-1.1057002572266761E+00
-1.1056822825234298E+00
-1.0919608676636294E+00
-1.0919608676635635E+00
-1.0778074364789796E+00
-1.0778074364785830E+00
-1.0632604472729636E+00
-1.0632604472729110E+00
-1.0483567735697152E+00
-1.0483529625311827E+00
-1.0331324629049401E+00
-1.0331324629048373E+00
-1.0176434516653359E+00
-1.0176434516651782E+00
-1.0019486123952079E+00
-1.0019486123948960E+00
-9.8612194888873872E-01
-9.8612189879495993E-01
-9.7025382854765396E-01
-9.7025382854738362E-01
-9.5445514177887614E-01
-9.5445514177872737E-01
-9.3886147790828811E-01
-9.3886147790821572E-01
-9.2363798894958116E-01
-9.2363749804953588E-01
-9.0898165128484687E-01
-9.0898165128479780E-01
-8.9512427244860882E-01
-8.9512427244817661E-01
-8.8232451413142399E-01
-8.8232451413130775E-01
-8.7622787018940140E-01
-8.7602542013372109E-01
-8.7602542010711248E-01
-8.7542062553813438E-01
-8.7542062553292144E-01
-8.7441973695302144E-01
-8.7441973695221875E-01
-8.7303561080900638E-01
-8.7303186840681246E-01
-8.7127852803693306E-01
-8.7127852803628070E-01
-8.7085505523703355E-01
-8.7085189890872305E-01
-8.6917550079231098E-01
-8.6917550079206640E-01
-8.6675237654282189E-01
-8.6675237654252912E-01
-8.6404444838404260E-01
-8.6404417395610533E-01
-8.6109537111133849E-01
-8.6109537111121437E-01
-8.6096713330592045E-01
-8.6096713330578389E-01
-8.5796045162754686E-01
-8.5796045162716661E-01
-8.5470775568524371E-01
-8.5470775568502877E-01
-8.5286720385985182E-01
-8.5286720385981107E-01
-8.5142565582701968E-01
-8.5141808914960204E-01
-8.4820755176974816E-01
-8.4820755176948581E-01
-8.4666296196450608E-01
-8.4666296196443558E-01
-8.4519400755268070E-01
-8.4519400755249874E-01
-8.4253940355288626E-01
-8.4253940355271539E-01
-8.4234691724337896E-01
-8.4234679100671106E-01
-8.4043500470660337E-01
-8.4043410849139222E-01
-8.3979645718121332E-01
-8.3979645718110763E-01
-8.3910402633027426E-01
-8.3910402633018155E-01
-8.3880161050150004E-01
-8.3880161050137880E-01
-7.2730025045081992E-01
-7.2700939851843649E-01
-7.2700939849194879E-01
-7.2613737629466002E-01
-7.2613737628946695E-01
-7.2468579006329370E-01
-7.2468579006245482E-01
-7.2265815016266155E-01
-7.2265651883888626E-01
-7.2005582056462569E-01
-7.2005582056401352E-01
-7.1688621326890101E-01
-7.1688621326867508E-01
-7.1315468102597857E-01
-7.1315468102569723E-01
-7.0886878641742379E-01
-7.0886853017420670E-01
-7.0403692007418284E-01
-7.0403692007404683E-01
-6.9866967236536970E-01
-6.9866967236500022E-01
-6.9277867966754680E-01
-6.9277867966734352E-01
-6.8642432365745154E-01
-6.8632966262427497E-01
-6.7947998860599124E-01
-6.7947998860557246E-01
-6.7210494433537449E-01
-6.7210494433516543E-01
-6.6427063159239474E-01
-6.6427063159227662E-01
-6.5599876228764475E-01
-6.5599801871338614E-01
-6.4731192024336126E-01
-6.4731192024326056E-01
-6.3823749097918714E-01
-6.3823749097911797E-01
-6.2880413924896494E-01
-6.2880413924890399E-01
-6.1904396525295002E-01
-6.1904377054882664E-01
-6.0899186479126488E-01
-6.0899186479119782E-01
-5.9868686295639373E-01
-5.9868686295633400E-01
-5.8817604531184664E-01
-5.8817604531173850E-01
-5.8647024952282667E-01
-5.8646334975621972E-01
-5.8562073712440377E-01
-5.8562073712412022E-01
-5.8504754097697853E-01
-5.8504754097664047E-01
-5.8278866298865295E-01
-5.8278866298856991E-01
-5.8118546039747265E-01
-5.8118546039742491E-01
-5.7825782589387731E-01
-5.7825782589383745E-01
-5.7748854653269421E-01
-5.7747619454342691E-01
-5.7475110863086831E-01
-5.7475110863082357E-01
-5.7231010130554361E-01
-5.7230898783467077E-01
-5.6668373176869069E-01
-5.6668373176860165E-01
-5.6576742551424319E-01
-5.6576652633778213E-01
-5.6520300571271365E-01
-5.6520300571265936E-01
-5.5716945569814813E-01
-5.5716945569802123E-01
-5.5582007519893095E-01
-5.5582007519843446E-01
-5.5437333257861199E-01
-5.5437333257855215E-01
-5.4841251810739045E-01
-5.4841251810723790E-01
-5.4494868571820321E-01
-5.4494868571812838E-01
-5.4080667164348495E-01
-5.4080667164341045E-01
-5.3911197020253554E-01
-5.3911092027938989E-01
-5.3413308999792841E-01
-5.3412603406115133E-01
-5.2942526542186086E-01
-5.2942526542163504E-01
-5.2536130298447503E-01
-5.2536130298443107E-01
-5.2342567658017869E-01
-5.2342567658004846E-01
-5.1949674663689338E-01
-5.1949674663675738E-01
-5.1290252262422631E-01
-5.1290252262405589E-01
-5.0945568158251830E-01
-5.0945568158242716E-01
-5.0835365362229079E-01
-5.0835312839885938E-01
-5.0262740318561172E-01
-5.0262740318519394E-01
-4.9942402639684630E-01
-4.9941862679822802E-01
-4.9266855673840199E-01
-4.9266841447025866E-01
-4.9009633340119174E-01
-4.9009633340113595E-01
-4.8950398865158606E-01
-4.8950398865152511E-01
-4.8309360964777426E-01
-4.8309360964736614E-01
-4.7980584570968859E-01
-4.7980584570928692E-01
-4.7396886157356305E-01
-4.7396886157338219E-01
-4.7088867386229377E-01
-4.7088867386212535E-01
-4.7042079683335886E-01
-4.7042079683328947E-01
-4.6535694402368466E-01
-4.6535694402359595E-01
-4.6143615156782480E-01
-4.6143302177236734E-01
-4.5732166762066451E-01
-4.5730912097904258E-01
-4.5292312845130306E-01
-4.5292312845126242E-01
-4.5101243500406774E-01
-4.5101243500368599E-01
-4.4989476033591791E-01
-4.4989476033584075E-01
-4.4495178264170809E-01
-4.4495178264166607E-01
-4.4313683317333641E-01
-4.4313683317279268E-01
-4.3757398260660191E-01
-4.3757398260654651E-01
-4.3707302221478311E-01
-4.3707302221465105E-01
-4.3172614017282024E-01
-4.3172017373805271E-01
-4.3084098782389790E-01
-4.3083068229494875E-01
-4.3082953377818378E-01
-4.3063038578988355E-01
-4.2709495210745163E-01
-4.2709495210731524E-01
-4.2510485315814966E-01
-4.2500575384047662E-01
-4.2500575381464512E-01
-4.2474790806858653E-01
-4.2474790806854013E-01
-4.2471430129243709E-01
-4.2471430128748949E-01
-4.2423234234133600E-01
-4.2423234234059942E-01
-4.2357666866700677E-01
-4.2357384363441913E-01
-4.2317988498532810E-01
-4.2317988498526982E-01
-4.2275937082328147E-01
-4.2275937082267745E-01
-4.2180642541810348E-01
-4.2180642541789098E-01
-4.2074317801458461E-01
-4.2074317801432332E-01
-4.1996529252811016E-01
-4.1996529252804393E-01
-4.1960204797669759E-01
-4.1960088394305151E-01
-4.1934466007885285E-01
-4.1934466007880233E-01
-4.1841821435517379E-01
-4.1841821435506865E-01
-4.1741781905735698E-01
-4.1741780756651115E-01
-4.1723548924261900E-01
-4.1723548924210896E-01
-4.1610095489695009E-01
-4.1610095489484833E-01
-4.1549663499552136E-01
-4.1549663499544826E-01
-4.1514130225616885E-01
-4.1497847747930655E-01
-4.1469462090364695E-01
-4.1469462090354842E-01
-4.1417339134650971E-01
-4.1417339134419817E-01
-4.1414691068035459E-01
-4.1414691068028125E-01
-4.1350681069120676E-01
-4.1350681069089512E-01
-4.1323603100531969E-01
-4.1323603100467304E-01
-4.1311944594530448E-01
-4.1311944594478023E-01
-4.1310083801838188E-01
-4.1309742502789309E-01
-4.1038746897165795E-01
-4.1038367159022787E-01
-4.1032088982595755E-01
-4.1032088982577314E-01
-4.0694200467195313E-01
-4.0694200467185798E-01
-4.0405012674689100E-01
-4.0405012674673224E-01
-4.0168539104908207E-01
-4.0168539104833240E-01
-3.9985054268809916E-01
-3.9974111608339902E-01
-3.9832639567566197E-01
-3.9832639567471495E-01
-3.9722004802067706E-01
-3.9722004802038996E-01
-3.9641713737892842E-01
-3.9641713737877587E-01
-3.9586212873165527E-01
-3.9586198184774479E-01
-3.9550258042201619E-01
-3.9550258042172887E-01
-3.9529109132083334E-01
-3.9529109132062923E-01
-3.9519658426459259E-01
-3.9518939236922829E-01
-3.9518939234247302E-01
-3.9518535695958246E-01
-3.9518535695803586E-01
-3.9517119178506771E-01
-3.9517119177991283E-01
-3.9515208398464230E-01
-3.9515208398193863E-01
-3.9515015867771275E-01
-3.9514784449347756E-01
-3.9003292562416947E-01
-3.9003292562379049E-01
-3.7014490552339019E-01
-3.7014490552322005E-01
-3.5094735220810847E-01
-3.5094700304001497E-01
-3.3275179364076529E-01
-3.3275179364046797E-01
-3.1589468535186876E-01
-3.1589468535162168E-01
-3.0073320466072062E-01
-3.0073320466005810E-01
-2.8763772060702897E-01
-2.8763656904515666E-01
-2.7697165183367589E-01
-2.7697165183272943E-01
-2.6907177638626417E-01
-2.6907177638045210E-01
-2.6421104870811135E-01
-2.6421104867975875E-01
-2.6256977397924747E-01
QETSC: Iter time (min)       =     2  44.65
QETSC: Iter time (max)       =     2  44.65
QETSC: Iter time (avg)       =     2  44.65
QETSC: Num. of conv. evals   =     2         384
QETSC: Eigenvalue (1)        =     2  -1.2740833956465085E+00
QETSC: Eigenvalue (nocc)     =     2  -2.6256977397924747E-01
QETSC: Max differrence       =     2   4.5910970112348776E-01
QETSC: Safe iteration        =     2      F
QETSC: Finished iter         =           2
 *****************************************************************
QETSC: SCF iter time=  44.660
 QETSC: Bins             =
-2.2999999999999998E+00
-2.1562500000000000E+00
-2.0124999999999997E+00
-1.8687499999999999E+00
-1.7249999999999999E+00
-1.5812499999999998E+00
-1.4375000000000000E+00
-1.2937500000000000E+00
-1.1499999999999999E+00
-1.0062499999999999E+00
-8.6249999999999993E-01
-7.1875000000000000E-01
-5.7499999999999996E-01
-4.3124999999999997E-01
-2.8749999999999998E-01
-1.4374999999999999E-01
 0.0000000000000000E+00
QETSC: Started iter            3
QETSC: Bin type used         =           0
QETSC: Buffer used           =   4.5910970112348776E-01
QETSC: EPS interval          =    -2.300,     0.000
QETSC: Inertia type          =           0
SLEPc: EPSSolve time = 4 2.892e-06
SLEPc: EPSSolve time = 13 4.100e-06
SLEPc: EPSSolve time = 15 2.644e-06
SLEPc: EPSSolve time = 0 4.140e-06
SLEPc: EPSSolve time = 1 3.861e-06
SLEPc: EPSSolve time = 5 3.867e-06
SLEPc: EPSSolve time = 3 3.839e-06
SLEPc: EPSSolve time = 14 2.386e-06
SLEPc: EPSSolve time = 2 3.360e-06
SLEPc: EPSSolve time = 8 3.612e+00
SLEPc: EPSSolve time = 6 4.222e+00
SLEPc: EPSSolve time = 9 4.856e+00
SLEPc: EPSSolve time = 7 5.435e+00
SLEPc: EPSSolve time = 10 1.125e+01
SLEPc: EPSSolve time = 11 1.153e+01
SLEPc: EPSSolve time = 12 2.608e+01
 QETSC: Eigenvalues         =
-1.4283282351049675E+00
-1.4280311334208000E+00
-1.4280311334040738E+00
-1.4271399230873401E+00
-1.4271399230816890E+00
-1.4256548912079636E+00
-1.4256548912072207E+00
-1.4235769892447327E+00
-1.4235760616690067E+00
-1.4209055278423777E+00
-1.4209055278419847E+00
-1.4176428326642523E+00
-1.4176428326641934E+00
-1.4137896284996503E+00
-1.4137896284991047E+00
-1.4093475167831586E+00
-1.4093472514455228E+00
-1.4043178773155727E+00
-1.4043178773131433E+00
-1.3987032273552702E+00
-1.3987032273551105E+00
-1.3925059335382912E+00
-1.3925059335379397E+00
-1.3857457494588905E+00
-1.3857119869550425E+00
-1.3783754295639383E+00
-1.3783754295637904E+00
-1.3704495236451932E+00
-1.3704495236449241E+00
-1.3619555532860232E+00
-1.3619555532859979E+00
-1.3529005791860893E+00
-1.3528966042265294E+00
-1.3432844133336337E+00
-1.3432844133336059E+00
-1.3331195858788984E+00
-1.3331195858787841E+00
-1.3224115768280726E+00
-1.3224115768280627E+00
-1.3111692926455267E+00
-1.3111684740066247E+00
-1.2994011882634093E+00
-1.2994011882634036E+00
-1.2871195522997692E+00
-1.2871195522997192E+00
-1.2743366513895651E+00
-1.2743366513895540E+00
-1.2610738248563711E+00
-1.2610603116007044E+00
-1.2473276711686434E+00
-1.2473276711685992E+00
-1.2331380744449301E+00
-1.2331380744447928E+00
-1.2185212227861690E+00
-1.2185212227861617E+00
-1.2035060829973472E+00
-1.2035022211645396E+00
-1.1881189484325891E+00
-1.1881189484325454E+00
-1.1724039846274876E+00
-1.1724039846274248E+00
-1.1564055130712496E+00
-1.1564055130711905E+00
-1.1401798053469001E+00
-1.1401796343477220E+00
-1.1237953611010363E+00
-1.1237953611009630E+00
-1.1073371149467943E+00
-1.1073371149467450E+00
-1.0909097556217868E+00
-1.0909097556217691E+00
-1.0746435070531790E+00
-1.0746427960153864E+00
-1.0586978155660987E+00
-1.0586978155660898E+00
-1.0432701539123539E+00
-1.0432701539122167E+00
-1.0285955029057650E+00
-1.0285955029056995E+00
-1.0149457768056374E+00
-1.0149451869376678E+00
-1.0026146702548187E+00
-1.0026146702547583E+00
-9.9702101989169156E-01
-9.9682994812855452E-01
-9.9682994811201309E-01
-9.9625915776118346E-01
-9.9625915775563900E-01
-9.9531565007487965E-01
-9.9531565007416867E-01
-9.9401349402187145E-01
-9.9400988930325807E-01
-9.9236502597875775E-01
-9.9236502597834919E-01
-9.9189175778675176E-01
-9.9189175778672034E-01
-9.9039972626257644E-01
-9.9039972626251271E-01
-9.8814725118316948E-01
-9.8814725118265112E-01
-9.8564797658232906E-01
-9.8564785345786432E-01
-9.8301567765956266E-01
-9.8301567765952469E-01
-9.8295285222633011E-01
-9.8295285222391060E-01
-9.8012661225201447E-01
-9.8012661225184450E-01
-9.7725051785217543E-01
-9.7725051785178041E-01
-9.7612609046901389E-01
-9.7612581310968816E-01
-9.7442829074787762E-01
-9.7442549075289064E-01
-9.7178414762444087E-01
-9.7178414762436927E-01
-9.7122857781110405E-01
-9.7122857781106509E-01
-9.6948242889708136E-01
-9.6948242889674474E-01
-9.6819424677317212E-01
-9.6819424677303723E-01
-9.6771886478315106E-01
-9.6771886478312097E-01
-9.6679041355941930E-01
-9.6679041355939177E-01
-9.6673080420987545E-01
-9.6672996893725982E-01
-8.4509189855449440E-01
-8.4480493768945508E-01
-8.4480493767301590E-01
-8.4394456819993136E-01
-8.4394456819458374E-01
-8.4251233427566086E-01
-8.4251233427494443E-01
-8.4051153251701527E-01
-8.4051011780409657E-01
-8.3794369969653193E-01
-8.3794369969615512E-01
-8.3481571972105750E-01
-8.3481571972099688E-01
-8.3113279355313008E-01
-8.3113279355263237E-01
-8.2690203327783562E-01
-8.2690202850649364E-01
-8.2213180802227281E-01
-8.2213180802006602E-01
-8.1683184668671094E-01
-8.1683184668657360E-01
-8.1101332457701036E-01
-8.1101332457673814E-01
-8.0473209808898161E-01
-8.0464519224845765E-01
-7.9787232484650439E-01
-7.9787232484632487E-01
-7.9058063448326332E-01
-7.9058063448298443E-01
-7.8283125196780445E-01
-7.8283125196778125E-01
-7.7464458796900004E-01
-7.7464377599695167E-01
-7.6604158018331969E-01
-7.6604158018328827E-01
-7.5704794149333920E-01
-7.5704794149321242E-01
-7.4769030094636102E-01
-7.4769030094634692E-01
-7.4009347275566417E-01
-7.4009347275563220E-01
-7.3899804068567021E-01
-7.3899129263877805E-01
-7.3893688308119898E-01
-7.3893688308117544E-01
-7.3799883766479357E-01
-7.3799882572803976E-01
-7.3593043274423320E-01
-7.3593043274417724E-01
-7.3529205367596995E-01
-7.3529205367596184E-01
-7.3120270372193796E-01
-7.3120270372186214E-01
-7.2902789136918089E-01
-7.2902677656850257E-01
-7.2800186189425253E-01
-7.2800186189422933E-01
-7.2509619529832103E-01
-7.2509619529830216E-01
-7.2016401359535576E-01
-7.2016401359532756E-01
-7.1786578931648404E-01
-7.1786377649601929E-01
-7.1774192808999915E-01
-7.1774192808994441E-01
-7.0972855541075164E-01
-7.0972855541072222E-01
-7.0885604978438166E-01
-7.0885604978430539E-01
-7.0725313391153677E-01
-7.0725313391148914E-01
-7.0087661259685408E-01
-7.0087661259679224E-01
-6.9658246238342403E-01
-6.9657333428740131E-01
-6.9537492392751754E-01
-6.9537492392749278E-01
-6.9147204747449798E-01
-6.9147204747441793E-01
-6.8576132127261646E-01
-6.8576132127254641E-01
-6.8165770395563274E-01
-6.8165671878627054E-01
-6.8005669840881455E-01
-6.8005662199717043E-01
-6.7485175344162529E-01
-6.7485175344144221E-01
-6.7155835742062631E-01
-6.7155835742052206E-01
-6.6390077727541785E-01
-6.6390077727540908E-01
-6.6325824317042437E-01
-6.6325824317041193E-01
-6.6128940120136781E-01
-6.6128940120129531E-01
-6.5296649252242078E-01
-6.5295965176822557E-01
-6.5095471616783995E-01
-6.5095471616779665E-01
-6.4532896888553071E-01
-6.4532896888534785E-01
-6.4209615360630001E-01
-6.4209615360624317E-01
-6.4065353041460260E-01
-6.4064865263913373E-01
-6.3135996961519181E-01
-6.3135996961514895E-01
-6.3046899573482051E-01
-6.3046899573481019E-01
-6.2659793407938391E-01
-6.2659793407924091E-01
-6.2081633229213573E-01
-6.2081633229196598E-01
-6.2049278828618837E-01
-6.2049278828601007E-01
-6.1080151852441844E-01
-6.1080151852433417E-01
-6.1052824216028190E-01
-6.1052810051830297E-01
-6.0746253560282670E-01
-6.0728386704278392E-01
-6.0147043944058243E-01
-6.0146488763934070E-01
-6.0055858657753880E-01
-6.0055858657740524E-01
-5.9255684753358195E-01
-5.9255684753353488E-01
-5.9096970755142009E-01
-5.9096970755136313E-01
-5.8794766735740589E-01
-5.8794766735719906E-01
-5.8412675602487363E-01
-5.8412675602485464E-01
-5.8182136695954301E-01
-5.8182136695951647E-01
-5.7622606634213636E-01
-5.7622606634212381E-01
-5.7317566153828914E-01
-5.7316360839316571E-01
-5.6889375671832176E-01
-5.6889310015215100E-01
-5.6860736251796840E-01
-5.6860736251784127E-01
-5.6506526837307169E-01
-5.6506526837305837E-01
-5.6215659724625933E-01
-5.6215659724625011E-01
-5.5755215506560662E-01
-5.5755215506540468E-01
-5.5603188878815535E-01
-5.5603188878805665E-01
-5.5066584490816739E-01
-5.5066584490811743E-01
-5.5052402057013605E-01
-5.5052402057010386E-01
-5.4963895119710127E-01
-5.4963895119518780E-01
-5.4562869764435995E-01
-5.4562412013544614E-01
-5.4443368634588352E-01
-5.4443091114675701E-01
-5.4132193169641740E-01
-5.4132193169639875E-01
-5.3886695380560423E-01
-5.3886695380553373E-01
-5.3758412104027120E-01
-5.3758412104003750E-01
-5.3437876335599976E-01
-5.3437876335572221E-01
-5.3397415970775997E-01
-5.3397415970771001E-01
-5.3171550155561875E-01
-5.3161340552369230E-01
-5.3133841604245902E-01
-5.3133822796307995E-01
-5.2974709517089147E-01
-5.2974709517085972E-01
-5.2939729496210364E-01
-5.2939729496143650E-01
-5.2753102382120709E-01
-5.2753102382102313E-01
-5.2616819724116670E-01
-5.2616809916421026E-01
-5.2601702794634841E-01
-5.2601702794416583E-01
-5.2480893836456377E-01
-5.2480876207472582E-01
-5.2386253411752015E-01
-5.2386253411701733E-01
-5.2320982086233903E-01
-5.2320982086231849E-01
-5.2313813490735961E-01
-5.2313813490728900E-01
-5.2260132591164765E-01
-5.2260132591127251E-01
-5.2222665466318197E-01
-5.2222401462092494E-01
-5.2199196950430282E-01
-5.2199196950350968E-01
-5.2188456113708237E-01
-5.2188456113173520E-01
-5.2186619400337098E-01
-5.2186326365122848E-01
-5.2186326363476521E-01
-5.2093641147987391E-01
-5.2090946133093974E-01
-5.2090946131458160E-01
-5.2083623122038059E-01
-5.2083623122024603E-01
-5.2080404729696450E-01
-5.2080404729173468E-01
-5.2057493310973291E-01
-5.2057493310905012E-01
-5.2021085463577965E-01
-5.2020875609951500E-01
-5.1973031406966741E-01
-5.1973031406934123E-01
-5.1916674755665848E-01
-5.1916674755660541E-01
-5.1900909171244225E-01
-5.1900909171229237E-01
-5.1854604044435126E-01
-5.1854604044392827E-01
-5.1794743018890188E-01
-5.1794511146569344E-01
-5.1763727467189735E-01
-5.1763357413665978E-01
-5.1733162257270171E-01
-5.1733162257081233E-01
-5.1679008836227625E-01
-5.1679008836100249E-01
-5.1673533973408203E-01
-5.1673533973386954E-01
-5.1636452488122875E-01
-5.1636452487464068E-01
-5.1620650265110446E-01
-5.1620650264958101E-01
-5.1615223162258916E-01
-5.1599537408206131E-01
-5.1599470300791939E-01
-5.1599470300095152E-01
-5.1401538009727188E-01
-5.1401538009680514E-01
-4.9799619689529856E-01
-4.9799619689524183E-01
-4.8362039510295046E-01
-4.8362039510259630E-01
-4.7123318575704959E-01
-4.7123239271877648E-01
-4.6116800878902453E-01
-4.6116800878829989E-01
-4.5372848055108123E-01
-4.5372848054534803E-01
-4.4915806368102945E-01
-4.4915806366423600E-01
-4.4761609116167439E-01
QETSC: Iter time (min)       =     3  29.68
QETSC: Iter time (max)       =     3  29.68
QETSC: Iter time (avg)       =     3  29.68
QETSC: Num. of conv. evals   =     3         384
QETSC: Eigenvalue (1)        =     3  -1.4283282351049675E+00
QETSC: Eigenvalue (nocc)     =     3  -4.4761609116167439E-01
QETSC: Max differrence       =     3   1.8504631718242692E-01
QETSC: Safe iteration        =     3      F
QETSC: Finished iter         =           3
 *****************************************************************
QETSC: SCF iter time=  29.690
 QETSC: Bins             =
-2.2999999999999998E+00
-2.1562500000000000E+00
-2.0124999999999997E+00
-1.8687499999999999E+00
-1.7249999999999999E+00
-1.5812499999999998E+00
-1.4375000000000000E+00
-1.2937500000000000E+00
-1.1499999999999999E+00
-1.0062499999999999E+00
-8.6249999999999993E-01
-7.1875000000000000E-01
-5.7499999999999996E-01
-4.3124999999999997E-01
-2.8749999999999998E-01
-1.4374999999999999E-01
 0.0000000000000000E+00
QETSC: Started iter            4
QETSC: Bin type used         =           0
QETSC: Buffer used           =   1.8504631718242692E-01
QETSC: EPS interval          =    -2.300,     0.000
QETSC: Inertia type          =           0
SLEPc: EPSSolve time = 0 3.559e-06
SLEPc: EPSSolve time = 14 3.524e-06
SLEPc: EPSSolve time = 13 4.168e-06
SLEPc: EPSSolve time = 3 3.445e-06
SLEPc: EPSSolve time = 15 2.604e-06
SLEPc: EPSSolve time = 1 3.932e-06
SLEPc: EPSSolve time = 4 4.011e-06
SLEPc: EPSSolve time = 2 2.896e-06
SLEPc: EPSSolve time = 6 3.782e+00
SLEPc: EPSSolve time = 5 4.212e+00
SLEPc: EPSSolve time = 7 4.263e+00
SLEPc: EPSSolve time = 9 8.134e+00
SLEPc: EPSSolve time = 8 8.308e+00
SLEPc: EPSSolve time = 11 1.140e+01
SLEPc: EPSSolve time = 10 1.223e+01
SLEPc: EPSSolve time = 12 1.251e+01
 QETSC: Eigenvalues         =
-1.4626216750399195E+00
-1.4623253107273855E+00
-1.4623253107243714E+00
-1.4614363073559633E+00
-1.4614363073545829E+00
-1.4599549362868482E+00
-1.4599549362845381E+00
-1.4578820639004753E+00
-1.4578812528315432E+00
-1.4552171366963143E+00
-1.4552171366953719E+00
-1.4519622533578698E+00
-1.4519622533575114E+00
-1.4481181298754997E+00
-1.4481181298746284E+00
-1.4436863266393818E+00
-1.4436859758022624E+00
-1.4386679925699597E+00
-1.4386679925695141E+00
-1.4330656492635827E+00
-1.4330656492627807E+00
-1.4268814724441086E+00
-1.4268814724439420E+00
-1.4201344653308523E+00
-1.4201018585746965E+00
-1.4127789083967939E+00
-1.4127789083967603E+00
-1.4048673753376719E+00
-1.4048673753373513E+00
-1.3963876877172960E+00
-1.3963876877170609E+00
-1.3873464706372494E+00
-1.3873427142963457E+00
-1.3777434851400181E+00
-1.3777434851399850E+00
-1.3675904932319107E+00
-1.3675904932316727E+00
-1.3568925721592913E+00
-1.3568925721591023E+00
-1.3456580663622035E+00
-1.3456571776146378E+00
-1.3338946274153005E+00
-1.3338946274151866E+00
-1.3216138296272826E+00
-1.3216138296272248E+00
-1.3088269385612825E+00
-1.3088269385610956E+00
-1.2955534549260503E+00
-1.2955413319987310E+00
-1.2817907001503892E+00
-1.2817907001503883E+00
-1.2675748420556159E+00
-1.2675748420555992E+00
-1.2529208023789971E+00
-1.2529208023789717E+00
-1.2378552875133999E+00
-1.2378511977433151E+00
-1.2224013613214519E+00
-1.2224013613214464E+00
-1.2066000037056619E+00
-1.2066000037056470E+00
-1.1904910982427335E+00
-1.1904910982427215E+00
-1.1741256079319338E+00
-1.1741254367676084E+00
-1.1575655220147938E+00
-1.1575655220147789E+00
-1.1408878360471890E+00
-1.1408878360471733E+00
-1.1241876778323603E+00
-1.1241876778323492E+00
-1.1075844063732267E+00
-1.1075829489104179E+00
-1.0912237118637325E+00
-1.0912237118637100E+00
-1.0752911084133487E+00
-1.0752911084133299E+00
-1.0600098206810593E+00
-1.0600098206810333E+00
-1.0456458320190449E+00
-1.0456454065518463E+00
-1.0324983340603091E+00
-1.0324983340599188E+00
-1.0208790157260519E+00
-1.0208790157259502E+00
-1.0201272477792462E+00
-1.0199377575933719E+00
-1.0199377575930115E+00
-1.0193716381626943E+00
-1.0193716381611493E+00
-1.0184364527344387E+00
-1.0184364527322936E+00
-1.0171462746945055E+00
-1.0171427160371054E+00
-1.0155142183586454E+00
-1.0155142183577286E+00
-1.0135705661712742E+00
-1.0135705661709224E+00
-1.0113462663590287E+00
-1.0113462663581363E+00
-1.0110679510907317E+00
-1.0110679510905962E+00
-1.0088835444128801E+00
-1.0088833658795608E+00
-1.0062358665236182E+00
-1.0062358665235698E+00
-1.0034717435269931E+00
-1.0034717435261638E+00
-1.0032610459556390E+00
-1.0032607982866186E+00
-1.0006776307359242E+00
-1.0006776307357881E+00
-9.9796347171141442E-01
-9.9796287175560150E-01
-9.9752021608432273E-01
-9.9752021608410002E-01
-9.9546689649853659E-01
-9.9546689649850939E-01
-9.9375774284846807E-01
-9.9375774284805585E-01
-9.9336256815426960E-01
-9.9336256815402901E-01
-9.9186487591051864E-01
-9.9186487591013162E-01
-9.9175849697895802E-01
-9.9175849697888707E-01
-9.9123215741877091E-01
-9.9123131310502410E-01
-8.6780404394484134E-01
-8.6751724150088938E-01
-8.6751724149807030E-01
-8.6665733889919705E-01
-8.6665733889864127E-01
-8.6522585498695270E-01
-8.6522585498483573E-01
-8.6322600038625708E-01
-8.6322467239416922E-01
[...]

---------------------------------------------- PETSc Performance Summary: ----------------------------------------------

/home/keceli/scratch2/siesta-qetsc/Obj/siesta on a arch-xl named Q02-I6-J06.vesta.itd with 16 processors, by Unknown Fri Jan  6 05:57:55 2017
Using Petsc Development GIT revision: v3.7.3-1204-g68f0caa  GIT Date: 2016-08-19 16:41:02 -0500

                         Max       Max/Min        Avg      Total 
Time (sec):           1.970e+03      1.00000   1.970e+03
Objects:              6.108e+03      1.35703   5.051e+03
Flops:                1.241e+11   8446.07271   3.682e+10  5.891e+11
Flops/sec:            6.300e+07   8446.07271   1.869e+07  2.990e+08
MPI Messages:         6.252e+04      3.00616   3.095e+04  4.952e+05
MPI Message Lengths:  3.300e+08      1.39415   9.161e+03  4.537e+09
MPI Reductions:       3.018e+04      1.00000

Flop counting convention: 1 flop = 1 real number operation of type (multiply/divide/add/subtract)
                            e.g., VecAXPY() for real vectors of length N --> 2N flops
                            and VecAXPY() for complex vectors of length N --> 8N flops

Summary of Stages:   ----- Time ------  ----- Flops -----  --- Messages ---  -- Message Lengths --  -- Reductions --
                        Avg     %Total     Avg     %Total   counts   %Total     Avg         %Total   counts   %Total 
 0:      Main Stage: 1.9869e-04   0.0%  0.0000e+00   0.0%  0.000e+00   0.0%  0.000e+00        0.0%  0.000e+00   0.0% 
 1:     siesta_init: 2.8992e+00   0.1%  0.0000e+00   0.0%  0.000e+00   0.0%  0.000e+00        0.0%  0.000e+00   0.0% 
 2:   siesta_forces: 2.5596e+02  13.0%  0.0000e+00   0.0%  0.000e+00   0.0%  0.000e+00        0.0%  0.000e+00   0.0% 
 3:    siesta_solve: 7.3134e-02   0.0%  0.0000e+00   0.0%  0.000e+00   0.0%  0.000e+00        0.0%  0.000e+00   0.0% 
 4:    siesta2qetsc: 1.7907e+00   0.1%  0.0000e+00   0.0%  1.896e+03   0.4%  1.006e+00        0.0%  4.440e+02   1.5% 
 5: qetsc_setup_eps: 3.5555e+00   0.2%  2.3514e+08   0.0%  5.760e+04  11.6%  5.377e+03       58.7%  1.200e+02   0.4% 
 6: qetsc_solve_eps: 9.4799e+02  48.1%  5.8883e+11 100.0%  3.060e+04   6.2%  2.688e+03       29.3%  6.720e+02   2.2% 
 7:   qetsc_eigvals: 6.2801e-01   0.0%  0.0000e+00   0.0%  0.000e+00   0.0%  0.000e+00        0.0%  0.000e+00   0.0% 
 8:   qetsc_density: 1.1902e+02   6.0%  0.0000e+00   0.0%  4.051e+05  81.8%  1.095e+03       11.9%  2.894e+04  95.9% 
10:     siesta_misc: 6.3599e+02  32.3%  0.0000e+00   0.0%  0.000e+00   0.0%  0.000e+00        0.0%  0.000e+00   0.0% 
11:     siesta_move: 1.3547e+00   0.1%  0.0000e+00   0.0%  0.000e+00   0.0%  0.000e+00        0.0%  0.000e+00   0.0% 
12: siesta_analysis: 5.4003e-02   0.0%  0.0000e+00   0.0%  0.000e+00   0.0%  0.000e+00        0.0%  0.000e+00   0.0% 
13:     qetsc_clean: 3.6244e-06   0.0%  0.0000e+00   0.0%  0.000e+00   0.0%  0.000e+00        0.0%  0.000e+00   0.0% 
14:      siesta_end: 8.9140e-01   0.0%  0.0000e+00   0.0%  0.000e+00   0.0%  0.000e+00        0.0%  0.000e+00   0.0% 

------------------------------------------------------------------------------------------------------------------------
See the 'Profiling' chapter of the users' manual for details on interpreting output.
Phase summary info:
   Count: number of times phase was executed
   Time and Flops: Max - maximum over all processors
                   Ratio - ratio of maximum to minimum over all processors
   Mess: number of messages sent
   Avg. len: average message length (bytes)
   Reduct: number of global reductions
   Global: entire computation
   Stage: stages of a computation. Set stages with PetscLogStagePush() and PetscLogStagePop().
      %T - percent time in this phase         %F - percent flops in this phase
      %M - percent messages in this phase     %L - percent message lengths in this phase
      %R - percent reductions in this phase
   Total Mflop/s: 10e-6 * (sum of flops over all processors)/(max time over all processors)
------------------------------------------------------------------------------------------------------------------------
Event                Count      Time (sec)     Flops                             --- Global ---  --- Stage ---   Total
                   Max Ratio  Max     Ratio   Max  Ratio  Mess   Avg len Reduct  %T %F %M %L %R  %T %F %M %L %R Mflop/s
------------------------------------------------------------------------------------------------------------------------

--- Event Stage 0: Main Stage


--- Event Stage 1: siesta_init


--- Event Stage 2: siesta_forces


--- Event Stage 3: siesta_solve


--- Event Stage 4: siesta2qetsc

MatConvert            24 1.0 1.6967e-02 1.1 0.00e+00 0.0 0.0e+00 0.0e+00 0.0e+00  0  0  0  0  0   1  0  0  0  0     0
MatAssemblyBegin      72 1.0 6.2954e-0169.8 0.00e+00 0.0 0.0e+00 0.0e+00 2.9e+02  0  0  0  0  1  19  0  0  0 65     0
MatAssemblyEnd        72 1.0 5.6801e-02 1.0 0.00e+00 0.0 1.9e+03 2.6e+02 1.3e+02  0  0  0  0  0   3  0100100 30     0
VecSet                36 1.0 1.2742e-04 1.1 0.00e+00 0.0 0.0e+00 0.0e+00 0.0e+00  0  0  0  0  0   0  0  0  0  0     0

--- Event Stage 5: qetsc_setup_eps

MatCopy               36 1.0 7.8272e-02 5.0 0.00e+00 0.0 0.0e+00 0.0e+00 0.0e+00  0  0  0  0  0   2  0  0  0  0     0
MatConvert            12 1.0 5.9614e-02 5.6 0.00e+00 0.0 0.0e+00 0.0e+00 0.0e+00  0  0  0  0  0   1  0  0  0  0     0
MatScale              96 1.0 5.5623e-02 4.5 1.47e+07 1.0 0.0e+00 0.0e+00 0.0e+00  0  0  0  0  0   1100  0  0  0  4227
MatAssemblyBegin      48 1.0 1.6335e-04 1.5 0.00e+00 0.0 0.0e+00 0.0e+00 0.0e+00  0  0  0  0  0   0  0  0  0  0     0
MatAssemblyEnd        48 1.0 1.6054e-01 1.5 0.00e+00 0.0 0.0e+00 0.0e+00 0.0e+00  0  0  0  0  0   4  0  0  0  0     0
MatGetSubMatrice      48 1.0 3.3435e+00 1.2 0.00e+00 0.0 5.8e+04 4.6e+04 9.6e+01  0  0 12 59  0  89  0100100 80     0
MatAXPY               48 1.0 1.4853e-01 4.2 0.00e+00 0.0 0.0e+00 0.0e+00 0.0e+00  0  0  0  0  0   4  0  0  0  0     0
MatRedundantMat       48 1.0 3.5277e+00 1.2 0.00e+00 0.0 5.8e+04 4.6e+04 9.6e+01  0  0 12 59  0  93  0100100 80     0

--- Event Stage 6: qetsc_solve_eps

MatMult            69342 0.0 3.2068e+02 0.0 8.43e+10 0.0 0.0e+00 0.0e+00 0.0e+00  5 70  0  0  0  10 70  0  0  0  1282
MatSolve           26763 0.0 3.8305e+02 0.0 0.00e+00 0.0 0.0e+00 0.0e+00 0.0e+00  6  0  0  0  0  13  0  0  0  0     0
MatCholFctrSym        12 1.0 6.0921e+00 1.1 0.00e+00 0.0 0.0e+00 0.0e+00 0.0e+00  0  0  0  0  0   1  0  0  0  0     0
MatCholFctrNum       152 2.5 6.8992e+01 2.5 0.00e+00 0.0 0.0e+00 0.0e+00 0.0e+00  2  0  0  0  0   4  0  0  0  0     0
MatCopy              140 2.9 1.3674e+01 2.9 0.00e+00 0.0 0.0e+00 0.0e+00 0.0e+00  0  0  0  0  0   1  0  0  0  0     0
MatConvert            36 1.0 1.5186e-01 1.8 0.00e+00 0.0 0.0e+00 0.0e+00 0.0e+00  0  0  0  0  0   0  0  0  0  0     0
MatAssemblyBegin     316 2.4 3.8485e-04 2.3 0.00e+00 0.0 0.0e+00 0.0e+00 0.0e+00  0  0  0  0  0   0  0  0  0  0     0
MatAssemblyEnd       316 2.4 7.6621e-01 2.1 0.00e+00 0.0 0.0e+00 0.0e+00 0.0e+00  0  0  0  0  0   0  0  0  0  0     0
MatGetRow        1307136 2.6 1.0712e+01 2.7 0.00e+00 0.0 0.0e+00 0.0e+00 0.0e+00  0  0  0  0  0   1  0  0  0  0     0
MatGetRowIJ           12 1.0 2.5310e-05 1.4 0.00e+00 0.0 0.0e+00 0.0e+00 0.0e+00  0  0  0  0  0   0  0  0  0  0     0
MatGetSubMatrice      24 1.0 1.6710e+00 1.1 0.00e+00 0.0 2.9e+04 4.6e+04 4.8e+01  0  0  6 29  0   0  0 94100  7     0
MatGetOrdering        12 1.0 3.9094e-03 1.1 0.00e+00 0.0 0.0e+00 0.0e+00 0.0e+00  0  0  0  0  0   0  0  0  0  0     0
MatZeroEntries       140 2.9 9.4783e-02 1.3 0.00e+00 0.0 0.0e+00 0.0e+00 0.0e+00  0  0  0  0  0   0  0  0  0  0     0
MatAXPY              152 2.5 2.9914e+01 2.5 0.00e+00 0.0 0.0e+00 0.0e+00 0.0e+00  1  0  0  0  0   2  0  0  0  0     0
MatRedundantMat       24 1.0 1.7635e+00 1.1 0.00e+00 0.0 2.9e+04 4.6e+04 4.8e+01  0  0  6 29  0   0  0 94100  7     0
VecDot              5948 0.0 6.2967e-02 0.0 3.50e+07 0.0 0.0e+00 0.0e+00 0.0e+00  0  0  0  0  0   0  0  0  0  0  2154
VecCopy            31774 0.0 2.0316e-01 0.0 0.00e+00 0.0 0.0e+00 0.0e+00 0.0e+00  0  0  0  0  0   0  0  0  0  0     0
VecSet             96970425.3 5.4106e-01151.8 0.00e+00 0.0 0.0e+00 0.0e+00 0.0e+00  0  0  0  0  0   0  0  0  0  0     0
VecSetRandom          66 0.0 1.1612e-01 0.0 0.00e+00 0.0 0.0e+00 0.0e+00 0.0e+00  0  0  0  0  0   0  0  0  0  0     0
EPSSetUp              60 1.0 9.7331e+01 1.0 0.00e+00 0.0 3.1e+04 4.4e+04 3.1e+02  5  0  6 29  1  10  0100100 46     0
EPSSolve              60 1.0 9.4853e+02 1.0 1.24e+11 0.0 3.1e+04 4.4e+04 6.7e+02 48100  6 29  2 100100100100100   621
STSetUp              120 1.0 4.9966e+01 1.0 0.00e+00 0.0 0.0e+00 0.0e+00 2.4e+01  3  0  0  0  0   5  0  0  0  4     0
STApply            26763 0.0 5.1084e+02 0.0 3.25e+10 0.0 0.0e+00 0.0e+00 0.0e+00  8 27  0  0  0  17 27  0  0  0   310
STMatSolve         26763 0.0 3.8700e+02 0.0 0.00e+00 0.0 0.0e+00 0.0e+00 0.0e+00  6  0  0  0  0  13  0  0  0  0     0
KSPSetUp             152 2.5 2.7793e-04 3.1 0.00e+00 0.0 0.0e+00 0.0e+00 0.0e+00  0  0  0  0  0   0  0  0  0  0     0
KSPSolve           26763 0.0 3.8401e+02 0.0 0.00e+00 0.0 0.0e+00 0.0e+00 0.0e+00  6  0  0  0  0  13  0  0  0  0     0
PCSetUp              152 2.5 7.4856e+01 2.3 0.00e+00 0.0 0.0e+00 0.0e+00 0.0e+00  2  0  0  0  0   4  0  0  0  0     0
PCApply            26763 0.0 3.8318e+02 0.0 0.00e+00 0.0 0.0e+00 0.0e+00 0.0e+00  6  0  0  0  0  13  0  0  0  0     0
BVCreate             210 0.0 9.3066e-02 0.0 0.00e+00 0.0 0.0e+00 0.0e+00 0.0e+00  0  0  0  0  0   0  0  0  0  0     0
BVCopy              5011 0.0 4.8998e-02 0.0 0.00e+00 0.0 0.0e+00 0.0e+00 0.0e+00  0  0  0  0  0   0  0  0  0  0     0
BVMultVec          36631 0.0 1.6272e+01 0.0 1.60e+10 0.0 0.0e+00 0.0e+00 0.0e+00  0 12  0  0  0   0 12  0  0  0  4253
BVMultInPlace       1017 0.0 4.1664e+00 0.0 7.47e+09 0.0 0.0e+00 0.0e+00 0.0e+00  0  6  0  0  0   0  6  0  0  0  9058
BVDotVec           36631 0.0 1.7845e+02 0.0 6.08e+10 0.0 0.0e+00 0.0e+00 0.0e+00  3 50  0  0  0   6 50  0  0  0  1653
BVOrthogonalizeV   20815 0.0 1.9508e+02 0.0 7.68e+10 0.0 0.0e+00 0.0e+00 0.0e+00  3 62  0  0  0   6 62  0  0  0  1867
BVScale            26763 0.0 2.1791e-01 0.0 7.88e+07 0.0 0.0e+00 0.0e+00 0.0e+00  0  0  0  0  0   0  0  0  0  0  1760
BVNormVec           5948 0.0 2.7585e+01 0.0 7.27e+09 0.0 0.0e+00 0.0e+00 0.0e+00  0  5  0  0  0   1  5  0  0  0  1020
BVSetRandom           66 0.0 1.1660e-01 0.0 0.00e+00 0.0 0.0e+00 0.0e+00 0.0e+00  0  0  0  0  0   0  0  0  0  0     0
DSSolve              951 0.0 4.3456e+00 0.0 0.00e+00 0.0 0.0e+00 0.0e+00 0.0e+00  0  0  0  0  0   0  0  0  0  0     0
DSVectors          31732 0.0 7.5646e-02 0.0 0.00e+00 0.0 0.0e+00 0.0e+00 0.0e+00  0  0  0  0  0   0  0  0  0  0     0
DSOther             1017 0.0 1.5325e-01 0.0 0.00e+00 0.0 0.0e+00 0.0e+00 0.0e+00  0  0  0  0  0   0  0  0  0  0     0

--- Event Stage 7: qetsc_eigvals


--- Event Stage 8: qetsc_density

VecCopy            23040 1.0 9.4462e-02 1.3 0.00e+00 0.0 0.0e+00 0.0e+00 0.0e+00  0  0  0  0  0   0  0  0  0  0     0
VecSet                12 1.0 1.6914e-04 2.8 0.00e+00 0.0 0.0e+00 0.0e+00 0.0e+00  0  0  0  0  0   0  0  0  0  0     0
VecScatterBegin    46080 1.0 4.8106e+00 1.1 0.00e+00 0.0 3.5e+05 1.5e+03 2.3e+04  0  0 70 11 76   4  0 85 94 80     0
VecScatterEnd      23040 1.0 2.5035e+00 1.2 0.00e+00 0.0 0.0e+00 0.0e+00 0.0e+00  0  0  0  0  0   2  0  0  0  0     0
BVCopy             23040 1.0 2.4012e-01 1.3 0.00e+00 0.0 0.0e+00 0.0e+00 0.0e+00  0  0  0  0  0   0  0  0  0  0     0

--- Event Stage 9: Unknown


--- Event Stage 10: siesta_misc


--- Event Stage 11: siesta_move


--- Event Stage 12: siesta_analysis


--- Event Stage 13: qetsc_clean


--- Event Stage 14: siesta_end

------------------------------------------------------------------------------------------------------------------------

Memory usage is given in bytes:

Object Type          Creations   Destructions     Memory  Descendants' Mem.
Reports information only for process 0.

--- Event Stage 0: Main Stage


--- Event Stage 1: siesta_init


--- Event Stage 2: siesta_forces


--- Event Stage 3: siesta_solve


--- Event Stage 4: siesta2qetsc

              Matrix   108              0            0     0.
              Vector   228             12        19776     0.
      Vector Scatter    48              0            0     0.
           Index Set    48             48        90624     0.

--- Event Stage 5: qetsc_setup_eps

              Matrix    24              0            0     0.
              Vector    12              0            0     0.
           Index Set   120             96        75264     0.
          EPS Solver    12              0            0     0.
  Spectral Transform    12              0            0     0.
       Krylov Solver    12              0            0     0.
      Preconditioner    12              0            0     0.
       Basis Vectors    12              0            0     0.
         PetscRandom    12              0            0     0.
              Region    12              0            0     0.
       Direct Solver    12              0            0     0.

--- Event Stage 6: qetsc_solve_eps

              Matrix   132             60    288889392     0.
              Vector   444            240      3758208     0.
           Index Set   120             60        47040     0.
          EPS Solver    12              0            0     0.
  Spectral Transform    12              0            0     0.
       Krylov Solver    12              0            0     0.
      Preconditioner    12              0            0     0.
       Basis Vectors    72             48        50688     0.
              Region    12              0            0     0.
       Direct Solver    12              0            0     0.

--- Event Stage 7: qetsc_eigvals


--- Event Stage 8: qetsc_density

              Vector    72             60      1512000     0.
      Vector Scatter   972            960      1117440     0.
           Index Set  1932           1932      2927808     0.

--- Event Stage 9: Unknown


--- Event Stage 10: siesta_misc


--- Event Stage 11: siesta_move

              Matrix     0            204    394653984     0.
              Vector     0            444     32704320     0.
      Vector Scatter     0             60        59328     0.
           Index Set     0             84       207168     0.
          EPS Solver     0             24       258096     0.
  Spectral Transform     0             24        19584     0.
       Krylov Solver     0             24        28032     0.
      Preconditioner     0             24        23424     0.
       Basis Vectors     0             36        38016     0.
         PetscRandom     0             12         7656     0.
              Region     0             24        15744     0.
       Direct Solver     0             24      1319904     0.

--- Event Stage 12: siesta_analysis


--- Event Stage 13: qetsc_clean


--- Event Stage 14: siesta_end

              Viewer     1              0            0     0.
========================================================================================================================
Average time to get PetscTime(): 1.38125e-07
Average time for MPI_Barrier(): 1.70125e-06
Average time for zero size MPI_Send(): 1.02919e-05
#PETSc Option Table entries:
-eps_interval -2.3,0.
-eps_krylovschur_detect_zeros 0
-eps_krylovschur_partitions 16
-ioptbin 0
-ioptdensity 0
-ioptinertia 0
-ioptleft 0
-ioptwrite 1
-log_view
-mat_mumps_cntl_3 1e-12
-mat_mumps_icntl_13 1
-mat_mumps_icntl_23 0
-mat_mumps_icntl_24 1
-mat_mumps_icntl_7 5
-mat_type mpisbaij
-roptdiff 0.
#End of PETSc Option Table entries
Compiled with FORTRAN kernels
Compiled with full precision matrices (default)
sizeof(short) 2 sizeof(int) 4 sizeof(long) 8 sizeof(void*) 8 sizeof(PetscScalar) 8 sizeof(PetscInt) 4
Configure options: --known-has-attribute-aligned=1 --download-chaco=0 --download-cmake=0 --download-hypre=0 --download-metis=1 --download-mumps=1 --download-parmetis=1 --download-plapack=0 --download-prometheus=0 --download-ptscotch=1 --download-spai=0 --download-spooles=0 --download-superlu=0 --download-superlu_dist=0 --download-triangle=0 --known-bits-per-byte=8 --known-level1-dcache-assoc=0 --known-level1-dcache-linesize=32 --known-level1-dcache-size=32768 --known-memcmp-ok=1 --known-mpi-c-double-complex=1 --known-mpi-int64_t=1 --known-mpi-long-double=1 --known-mpi-shared-libraries=0 --known-sdot-returns-double=0 --known-sizeof-MPI_Comm=4 --known-sizeof-MPI_Fint=4 --known-sizeof-char=1 --known-sizeof-double=8 --known-sizeof-float=4 --known-sizeof-int=4 --known-sizeof-long-long=8 --known-sizeof-long=8 --known-sizeof-short=2 --known-sizeof-size_t=8 --known-sizeof-void-p=8 --known-snrm2-returns-double=0 --with-batch=1 --with-blacs-include=/soft/libraries/alcf/current/xl/SCALAPACK/ --with-blacs-lib=/soft/libraries/alcf/current/xl/SCALAPACK/lib/libscalapack.a --with-blas-lapack-lib="-L/soft/libraries/alcf/current/xl/LAPACK/lib -llapack -L/soft/libraries/alcf/current/xl/BLAS/lib -lblas" --with-cc=mpixlc_r --with-clib-autodetect=0 --with-cxx=mpixlcxx_r --with-cxxlib-autodetect=0 --with-debugging=0 --with-fc="mpixlf77_r -qnosave" --with-fortran-kernels=1 --with-fortranlib-autodetect=0 --with-is-color-value-type=short --with-scalapack-include=/soft/libraries/alcf/current/xl/SCALAPACK/ --with-scalapack-lib=/soft/libraries/alcf/current/xl/SCALAPACK/lib/libscalapack.a --with-shared-libraries=0 --with-x=0 -COPTFLAGS=" -g -O3 -qhot=level=0 -qsimd=auto -qmaxmem=-1 -qstrict -qstrict_induction" -CXXOPTFLAGS="  -g -O3 -qhot=level=0 -qsimd=auto -qmaxmem=-1 -qstrict -qstrict_induction" -FOPTFLAGS=" -g -O3 -qhot=level=0 -qsimd=auto -qmaxmem=-1 -qstrict -qstrict_induction" LIBS="-lmpichcxx-gcc -lmpichf77-gcc -L/soft/compilers/ibmcmp-feb2015/vacpp/bg/12.1/bglib64 -libmc++ -L/soft/compilers/ibmcmp-feb2015/xlf/bg/14.1/bglib64 -lxlf90_r -lxlomp_ser -lxlfmath" PETSC_ARCH=arch-xl
-----------------------------------------
Libraries compiled on Sat Aug 20 04:19:47 2016 on vestalac2 
Machine characteristics: Linux-2.6.32-573.18.1.el6.ppc64-ppc64-with-redhat-6.7-Santiago
Using PETSc directory: /home/keceli/scratch2/petsc
Using PETSc arch: arch-xl
-----------------------------------------

Using C compiler: mpixlc_r   -g -O3 -qhot=level=0 -qsimd=auto -qmaxmem=-1 -qstrict -qstrict_induction  ${COPTFLAGS} ${CFLAGS}
Using Fortran compiler: mpixlf77_r -qnosave  -g -O3 -qhot=level=0 -qsimd=auto -qmaxmem=-1 -qstrict -qstrict_induction   ${FOPTFLAGS} ${FFLAGS} 
-----------------------------------------

Using include paths: -I/home/keceli/scratch2/petsc/arch-xl/include -I/home/keceli/scratch2/petsc/include -I/home/keceli/scratch2/petsc/include -I/home/keceli/scratch2/petsc/arch-xl/include -I/bgsys/drivers/V1R2M4/ppc64/comm/include -I/bgsys/drivers/V1R2M4/ppc64/comm/lib/xl -I/bgsys/drivers/V1R2M4/ppc64 -I/bgsys/drivers/V1R2M4/ppc64/comm/sys/include -I/bgsys/drivers/V1R2M4/ppc64/spi/include -I/bgsys/drivers/V1R2M4/ppc64/spi/include/kernel/cnk
-----------------------------------------

Using C linker: mpixlc_r
Using Fortran linker: mpixlf77_r -qnosave
Using libraries: -Wl,-rpath,/home/keceli/scratch2/petsc/arch-xl/lib -L/home/keceli/scratch2/petsc/arch-xl/lib -lpetsc -Wl,-rpath,/home/keceli/scratch2/petsc/arch-xl/lib -L/home/keceli/scratch2/petsc/arch-xl/lib -lcmumps -ldmumps -lsmumps -lzmumps -lmumps_common -lpord -Wl,-rpath,/soft/libraries/alcf/current/xl/SCALAPACK/lib -L/soft/libraries/alcf/current/xl/SCALAPACK/lib -lscalapack -L/soft/libraries/alcf/current/xl/LAPACK/lib -llapack -L/soft/libraries/alcf/current/xl/BLAS/lib -lblas -lparmetis -lmetis -lptesmumps -lptscotch -lptscotcherr -lscotch -lscotcherr -lrt -lm -lpthread -ldl -lmpichcxx-gcc -lmpichf77-gcc -L/soft/compilers/ibmcmp-feb2015/vacpp/bg/12.1/bglib64 -libmc++ -L/soft/compilers/ibmcmp-feb2015/xlf/bg/14.1/bglib64 -lxlf90_r -lxlomp_ser -lxlfmath
-----------------------------------------

