s.subSiesta: Submission time = 51s53m11h
s.subSiesta: Job name = sp1024_s64_n128_c16
s.subSiesta: Number of nodes = 128
s.subSiesta: Number of cores = 2048
s.subSiesta: Number of cores/node = 16
s.subSiesta: Number of slices = 64
s.subSiesta: Mapping = ABCDET
51s53m11h
#QETSc options
-ioptbin 7
-ioptdensity 0
-ioptinertia 1
-ioptleft 2
-roptbuffer 0.01
-roptdiff 0.02
-writeeigs 1

#PETSc options
-mat_type mpisbaij
-log_view
#-mat_view
#-memory_view
#-mat_mumps_icntl_13 1 #turn off scaLAPACK for matrix inertia
#-mat_mumps_icntl_24 1 #null pivot row detection for matrix inertia
-mat_mumps_icntl_23 0
#-mat_mumps_icntl_28 1 # serial analysis
#-mat_mumps_icntl_28 2 #parallel analysis
#-mat_mumps_icntl_29 1 #ptscotch
#-mat_mumps_icntl_29 2 #parmetis
-mat_mumps_icntl_7 5 #metis
#-malloc_info 
#-mat_view ::ascii_info 
#-mat_getrow_uppertriangular 1
#-st_type sinvert 
#-st_ksp_type preonly 
#-st_pc_type cholesky 
#-st_pc_factor_mat_solver_package mumps 

#SLEPc options

#-eps_krylovschur_partitions 1  
-eps_interval -2.3,0.
#-eps_tol  1.e-8
-eps_krylovschur_detect_zeros 0
#-eps_purify 1
SystemName          polyethylene
SystemLabel         polyethylene
NumberOfAtoms       6
NumberOfSpecies     2

%block ChemicalSpeciesLabel
 1  6  C
 2  1  H
%endblock ChemicalSpeciesLabel

DM.MixingWeight 0.3
DM.NumberPulay 3
#BlockSize 23
#SolutionMethod  slepc1
WriteDM .false.
WriteDM.NetCDF .false.
WriteDMHS.NetCDF .false.
LongOutput .false.
#MaxSCFIterations 1

PAO.BasisType split
PAO.BasisSize DZP

LatticeConstant 1.00 Ang
%block LatticeVectors
20.000  0.000  0.000
 0.000 20.000  0.000
 0.000  0.000  2.572
%endblock LatticeVectors

%block kgrid_Monkhorst_Pack
1 0 0 0.0
0 1 0 0.0
0 0 1 0.0
%endblock kgrid_Monkhorst_Pack

%block SuperCell
1 0 0
0 1 0
0 0 1024
%endblock SuperCell

AtomicCoordinatesFormat Ang
%block AtomicCoordinatesAndAtomicSpecies
  0.31237500000000001       0.28138740000000001       0.64300000000000002     1
   1.3964999999999999        7.3970400000000006E-002  0.64300000000000002     2
  0.21462000000000001        1.3794480000000002       0.64300000000000002     2
 -0.31237500000000001      -0.28138740000000001      -0.64300000000000002     1
  -1.3964999999999999       -7.3970400000000006E-002 -0.64300000000000002     2
 -0.21462000000000001       -1.3794480000000002      -0.64300000000000002     2
%endblock AtomicCoordinatesAndAtomicSpecies
Siesta Version: siesta-trunk-492
Architecture  : powerpc64-unknown-linux-gnu--Xlf
Compiler flags: mpixlf90_r -I/home/keceli/scratch2/petsc/include -I/home/keceli/scratch2/petssc/arch-xl/include -I/bgsys/drivers/V1R2M4/ppc64/comm/include -I/bgsys/drivers/V1R2M4/ppc64/comm/lib/xl -I/bgsys/drivers/V1R2M4/ppc64 -I/bgsys/drivers/V1R2M4/ppc64/comm/sys/include -I/bgsys/drivers/V1R2M4/ppc64/spi/include -I/bgsys/drivers/V1R2M4/ppc64/spi/include/kernel/cnk -I/home/keceli/scratch2/slepcfork/include -I/home/keceli/scratch2/slepcfork/arch-xl/include
PP flags      : -WF,-DMPI -WF,-DFC_HAVE_ABORT -WF,-DBSC_CELLXC -WF,-DMPI_TIMING 
PARALLEL version

* Running on 2048 nodes in parallel
>> Start of run:   8-DEC-2016  11:54:50

                           ***********************       
                           *  WELCOME TO SIESTA  *       
                           ***********************       
WARNING: Siesta is reading its input from file INPUT_DEBUG

reinit: -----------------------------------------------------------------------
reinit: System Name: polyethylene
reinit: -----------------------------------------------------------------------
reinit: System Label: polyethylene                                                
reinit: -----------------------------------------------------------------------

initatom: Reading input for the pseudopotentials and atomic orbitals ----------
Species number:   1 Atomic number:    6 Label: C
Species number:   2 Atomic number:    1 Label: H
 
Ground state valence configuration:   2s02  2p02
Reading pseudopotential information in formatted form from C.psf

Valence configuration for pseudopotential generation:
2s( 2.00) rc: 1.54
2p( 2.00) rc: 1.54
3d( 0.00) rc: 1.54
4f( 0.00) rc: 1.54
Ground state valence configuration:   1s01
Reading pseudopotential information in formatted form from H.psf

Valence configuration for pseudopotential generation:
1s( 1.00) rc: 1.31
2p( 0.00) rc: 1.31
3d( 0.00) rc: 0.37
4f( 0.00) rc: 1.31
For C, standard SIESTA heuristics set lmxkb to 3
 (one more than the basis l, including polarization orbitals).
Use PS.lmax or PS.KBprojectors blocks to override.
For H, standard SIESTA heuristics set lmxkb to 2
 (one more than the basis l, including polarization orbitals).
Use PS.lmax or PS.KBprojectors blocks to override.

<basis_specs>
===============================================================================
C                    Z=   6    Mass=  12.010        Charge= 0.17977+309
Lmxo=1 Lmxkb= 3    BasisType=split      Semic=F
L=0  Nsemic=0  Cnfigmx=2
          n=1  nzeta=2  polorb=0
            splnorm:   0.15000    
               vcte:    0.0000    
               rinn:    0.0000    
               qcoe:    0.0000    
               qyuk:    0.0000    
               qwid:   0.10000E-01
                rcs:    0.0000      0.0000    
            lambdas:    1.0000      1.0000    
L=1  Nsemic=0  Cnfigmx=2
          n=1  nzeta=2  polorb=1
            splnorm:   0.15000    
               vcte:    0.0000    
               rinn:    0.0000    
               qcoe:    0.0000    
               qyuk:    0.0000    
               qwid:   0.10000E-01
                rcs:    0.0000      0.0000    
            lambdas:    1.0000      1.0000    
-------------------------------------------------------------------------------
L=0  Nkbl=1  erefs: 0.17977+309
L=1  Nkbl=1  erefs: 0.17977+309
L=2  Nkbl=1  erefs: 0.17977+309
L=3  Nkbl=1  erefs: 0.17977+309
===============================================================================
</basis_specs>

atom: Called for C                     (Z =   6)

read_vps: Pseudopotential generation method:
read_vps: ATM3      Troullier-Martins                       
Total valence charge:    4.00000

xc_check: Exchange-correlation functional:
xc_check: Ceperley-Alder
V l=0 = -2*Zval/r beyond r=  1.5227
V l=1 = -2*Zval/r beyond r=  1.5227
V l=2 = -2*Zval/r beyond r=  1.5227
V l=3 = -2*Zval/r beyond r=  1.5038
All V_l potentials equal beyond r=  1.5227
This should be close to max(r_c) in ps generation
All pots = -2*Zval/r beyond r=  1.5227

VLOCAL1: 99.0% of the norm of Vloc inside     18.722 Ry
VLOCAL1: 99.9% of the norm of Vloc inside     42.668 Ry
atom: Maximum radius for 4*pi*r*r*local-pseudopot. charge    1.83678
atom: Maximum radius for r*vlocal+2*Zval:    1.58088
GHOST: No ghost state for L =  0
GHOST: No ghost state for L =  1
GHOST: No ghost state for L =  2
GHOST: No ghost state for L =  3

KBgen: Kleinman-Bylander projectors: 
   l= 0   rc=  1.747182   el= -1.001948   Ekb=  4.950286   kbcos=  0.319819
   l= 1   rc=  1.747182   el= -0.398598   Ekb= -4.108613   kbcos= -0.367053
   l= 2   rc=  1.930978   el=  0.002326   Ekb= -1.042946   kbcos= -0.009366
   l= 3   rc=  2.055542   el=  0.003420   Ekb= -0.408633   kbcos= -0.001262

KBgen: Total number of  Kleinman-Bylander projectors:   16
atom: -------------------------------------------------------------------------

atom: SANKEY-TYPE ORBITALS:
atom: Selected multiple-zeta basis: split     

SPLIT: Orbitals with angular momentum L= 0

SPLIT: Basis orbitals for state 2s

SPLIT: PAO cut-off radius determined from an
SPLIT: energy shift=  0.020000 Ry

   izeta = 1
                 lambda =    1.000000
                     rc =    4.191849
                 energy =   -0.983897
                kinetic =    0.880927
    potential(screened) =   -1.864824
       potential(ionic) =   -5.475687

   izeta = 2
                 rmatch =    3.431921
              splitnorm =    0.150000
                 energy =   -0.853083
                kinetic =    1.298222
    potential(screened) =   -2.151305
       potential(ionic) =   -5.995890

SPLIT: Orbitals with angular momentum L= 1

SPLIT: Basis orbitals for state 2p

SPLIT: PAO cut-off radius determined from an
SPLIT: energy shift=  0.020000 Ry

   izeta = 1
                 lambda =    1.000000
                     rc =    4.870301
                 energy =   -0.379093
                kinetic =    2.540023
    potential(screened) =   -2.919116
       potential(ionic) =   -6.427960

   izeta = 2
                 rmatch =    3.475094
              splitnorm =    0.150000
                 energy =   -0.215057
                kinetic =    3.814571
    potential(screened) =   -4.029628
       potential(ionic) =   -7.920250

POLgen: Perturbative polarization orbital with L=  2

POLgen: Polarization orbital for state 2p

   izeta = 1
                     rc =    4.870301
                 energy =    1.280996
                kinetic =    2.631310
    potential(screened) =   -1.350314
       potential(ionic) =   -4.295640
atom: Total number of Sankey-type orbitals: 13

atm_pop: Valence configuration (for local Pseudopot. screening):
 2s( 2.00)                                                            
 2p( 2.00)                                                            
Vna: chval, zval:    4.00000   4.00000

Vna:  Cut-off radius for the neutral-atom potential:   4.870301

atom: _________________________________________________________________________

<basis_specs>
===============================================================================
H                    Z=   1    Mass=  1.0100        Charge= 0.17977+309
Lmxo=0 Lmxkb= 2    BasisType=split      Semic=F
L=0  Nsemic=0  Cnfigmx=1
          n=1  nzeta=2  polorb=1
            splnorm:   0.15000    
               vcte:    0.0000    
               rinn:    0.0000    
               qcoe:    0.0000    
               qyuk:    0.0000    
               qwid:   0.10000E-01
                rcs:    0.0000      0.0000    
            lambdas:    1.0000      1.0000    
-------------------------------------------------------------------------------
L=0  Nkbl=1  erefs: 0.17977+309
L=1  Nkbl=1  erefs: 0.17977+309
L=2  Nkbl=1  erefs: 0.17977+309
===============================================================================
</basis_specs>

atom: Called for H                     (Z =   1)

read_vps: Pseudopotential generation method:
read_vps: ATM3      Troullier-Martins                       
Total valence charge:    1.00000

xc_check: Exchange-correlation functional:
xc_check: Ceperley-Alder
V l=0 = -2*Zval/r beyond r=  1.2977
V l=1 = -2*Zval/r beyond r=  1.2815
V l=2 = -2*Zval/r beyond r=  1.1307
All V_l potentials equal beyond r=  1.2977
This should be close to max(r_c) in ps generation
All pots = -2*Zval/r beyond r=  1.2977

VLOCAL1: 99.0% of the norm of Vloc inside     25.776 Ry
VLOCAL1: 99.9% of the norm of Vloc inside     58.745 Ry
atom: Maximum radius for 4*pi*r*r*local-pseudopot. charge    1.52711
atom: Maximum radius for r*vlocal+2*Zval:    1.28155
GHOST: No ghost state for L =  0
GHOST: No ghost state for L =  1
GHOST: No ghost state for L =  2

KBgen: Kleinman-Bylander projectors: 
   l= 0   rc=  1.434438   el= -0.467325   Ekb= -1.940326   kbcos= -0.353040
   l= 1   rc=  1.508111   el=  0.001430   Ekb= -0.480826   kbcos= -0.024144
   l= 2   rc=  1.527112   el=  0.002365   Ekb= -0.479392   kbcos= -0.001656

KBgen: Total number of  Kleinman-Bylander projectors:    9
atom: -------------------------------------------------------------------------

atom: SANKEY-TYPE ORBITALS:
atom: Selected multiple-zeta basis: split     

SPLIT: Orbitals with angular momentum L= 0

SPLIT: Basis orbitals for state 1s

SPLIT: PAO cut-off radius determined from an
SPLIT: energy shift=  0.020000 Ry

   izeta = 1
                 lambda =    1.000000
                     rc =    4.828263
                 energy =   -0.449375
                kinetic =    0.925762
    potential(screened) =   -1.375137
       potential(ionic) =   -1.911235

   izeta = 2
                 rmatch =    3.854947
              splitnorm =    0.150000
                 energy =   -0.336149
                kinetic =    1.498089
    potential(screened) =   -1.834238
       potential(ionic) =   -2.406110

POLgen: Perturbative polarization orbital with L=  1

POLgen: Polarization orbital for state 1s

   izeta = 1
                     rc =    4.828263
                 energy =    0.707053
                kinetic =    1.398668
    potential(screened) =   -0.691614
       potential(ionic) =   -1.171973
atom: Total number of Sankey-type orbitals:  5

atm_pop: Valence configuration (for local Pseudopot. screening):
 1s( 1.00)                                                            
Vna: chval, zval:    1.00000   1.00000

Vna:  Cut-off radius for the neutral-atom potential:   4.828263

atom: _________________________________________________________________________

prinput: Basis input ----------------------------------------------------------

PAO.BasisType split     

%block ChemicalSpeciesLabel
    1    6 C                       # Species index, atomic number, species label
    2    1 H                       # Species index, atomic number, species label
%endblock ChemicalSpeciesLabel

%block PAO.Basis                 # Define Basis set
C                     2                    # Species label, number of l-shells
 n=2   0   2                         # n, l, Nzeta 
   4.192      3.432   
   1.000      1.000   
 n=2   1   2 P   1                   # n, l, Nzeta, Polarization, NzetaPol
   4.870      3.475   
   1.000      1.000   
H                     1                    # Species label, number of l-shells
 n=1   0   2 P   1                   # n, l, Nzeta, Polarization, NzetaPol
   4.828      3.855   
   1.000      1.000   
%endblock PAO.Basis

prinput: ----------------------------------------------------------------------

coor:   Atomic-coordinates input format  =     Cartesian coordinates
coor:                                          (in Angstroms)

siesta: Atomic coordinates (Bohr) and species
siesta:      0.59030   0.53175   1.21509  1        1
siesta:      2.63900   0.13978   1.21509  2        2
siesta:      0.40557   2.60678   1.21509  2        3
siesta:     -0.59030  -0.53175  -1.21509  1        4
siesta:     -2.63900  -0.13978  -1.21509  2        5
siesta:     -0.40557  -2.60678  -1.21509  2        6
siesta:      0.59030   0.53175   6.07547  1        7
siesta:      2.63900   0.13978   6.07547  2        8
siesta:      0.40557   2.60678   6.07547  2        9
siesta:     -0.59030  -0.53175   3.64528  1       10
siesta:     -2.63900  -0.13978   3.64528  2       11
siesta:     -0.40557  -2.60678   3.64528  2       12
siesta:      0.59030   0.53175  10.93585  1       13
siesta:      2.63900   0.13978  10.93585  2       14
siesta:      0.40557   2.60678  10.93585  2       15
siesta:     -0.59030  -0.53175   8.50566  1       16
siesta:     -2.63900  -0.13978   8.50566  2       17
siesta:     -0.40557  -2.60678   8.50566  2       18
siesta:      0.59030   0.53175  15.79623  1       19
siesta:      2.63900   0.13978  15.79623  2       20
siesta:      0.40557   2.60678  15.79623  2       21
siesta:     -0.59030  -0.53175  13.36604  1       22
siesta:     -2.63900  -0.13978  13.36604  2       23
siesta:     -0.40557  -2.60678  13.36604  2       24
siesta:      0.59030   0.53175  20.65660  1       25
siesta:      2.63900   0.13978  20.65660  2       26
siesta:      0.40557   2.60678  20.65660  2       27
siesta:     -0.59030  -0.53175  18.22642  1       28
siesta:     -2.63900  -0.13978  18.22642  2       29
siesta:     -0.40557  -2.60678  18.22642  2       30
siesta:      0.59030   0.53175  25.51698  1       31
siesta:      2.63900   0.13978  25.51698  2       32
siesta:      0.40557   2.60678  25.51698  2       33
siesta:     -0.59030  -0.53175  23.08679  1       34
siesta:     -2.63900  -0.13978  23.08679  2       35
siesta:     -0.40557  -2.60678  23.08679  2       36
siesta:      0.59030   0.53175  30.37736  1       37
siesta:      2.63900   0.13978  30.37736  2       38
siesta:      0.40557   2.60678  30.37736  2       39
siesta:     -0.59030  -0.53175  27.94717  1       40
siesta:     -2.63900  -0.13978  27.94717  2       41
siesta:     -0.40557  -2.60678  27.94717  2       42
siesta:      0.59030   0.53175  35.23774  1       43
siesta:      2.63900   0.13978  35.23774  2       44
siesta:      0.40557   2.60678  35.23774  2       45
siesta:     -0.59030  -0.53175  32.80755  1       46
siesta:     -2.63900  -0.13978  32.80755  2       47
siesta:     -0.40557  -2.60678  32.80755  2       48
siesta:      0.59030   0.53175  40.09811  1       49
siesta:      2.63900   0.13978  40.09811  2       50
siesta:      0.40557   2.60678  40.09811  2       51
siesta:     -0.59030  -0.53175  37.66793  1       52
siesta:     -2.63900  -0.13978  37.66793  2       53
siesta:     -0.40557  -2.60678  37.66793  2       54
siesta:      0.59030   0.53175  44.95849  1       55
siesta:      2.63900   0.13978  44.95849  2       56
siesta:      0.40557   2.60678  44.95849  2       57
siesta:     -0.59030  -0.53175  42.52830  1       58
siesta:     -2.63900  -0.13978  42.52830  2       59
siesta:     -0.40557  -2.60678  42.52830  2       60
siesta:      0.59030   0.53175  49.81887  1       61
siesta:      2.63900   0.13978  49.81887  2       62
siesta:      0.40557   2.60678  49.81887  2       63
siesta:     -0.59030  -0.53175  47.38868  1       64
siesta:     -2.63900  -0.13978  47.38868  2       65
siesta:     -0.40557  -2.60678  47.38868  2       66
siesta:      0.59030   0.53175  54.67925  1       67
siesta:      2.63900   0.13978  54.67925  2       68
siesta:      0.40557   2.60678  54.67925  2       69
siesta:     -0.59030  -0.53175  52.24906  1       70
siesta:     -2.63900  -0.13978  52.24906  2       71
siesta:     -0.40557  -2.60678  52.24906  2       72
siesta:      0.59030   0.53175  59.53962  1       73
siesta:      2.63900   0.13978  59.53962  2       74
siesta:      0.40557   2.60678  59.53962  2       75
siesta:     -0.59030  -0.53175  57.10944  1       76
siesta:     -2.63900  -0.13978  57.10944  2       77
siesta:     -0.40557  -2.60678  57.10944  2       78
siesta:      0.59030   0.53175  64.40000  1       79
siesta:      2.63900   0.13978  64.40000  2       80
siesta:      0.40557   2.60678  64.40000  2       81
siesta:     -0.59030  -0.53175  61.96981  1       82
siesta:     -2.63900  -0.13978  61.96981  2       83
siesta:     -0.40557  -2.60678  61.96981  2       84
siesta:      0.59030   0.53175  69.26038  1       85
siesta:      2.63900   0.13978  69.26038  2       86
siesta:      0.40557   2.60678  69.26038  2       87
siesta:     -0.59030  -0.53175  66.83019  1       88
siesta:     -2.63900  -0.13978  66.83019  2       89
siesta:     -0.40557  -2.60678  66.83019  2       90
siesta:      0.59030   0.53175  74.12076  1       91
siesta:      2.63900   0.13978  74.12076  2       92
siesta:      0.40557   2.60678  74.12076  2       93
siesta:     -0.59030  -0.53175  71.69057  1       94
siesta:     -2.63900  -0.13978  71.69057  2       95
siesta:     -0.40557  -2.60678  71.69057  2       96
siesta:      0.59030   0.53175  78.98113  1       97
siesta:      2.63900   0.13978  78.98113  2       98
siesta:      0.40557   2.60678  78.98113  2       99
siesta:     -0.59030  -0.53175  76.55095  1      100
siesta:     -2.63900  -0.13978  76.55095  2      101
siesta:     -0.40557  -2.60678  76.55095  2      102
siesta:      0.59030   0.53175  83.84151  1      103
siesta:      2.63900   0.13978  83.84151  2      104
siesta:      0.40557   2.60678  83.84151  2      105
siesta:     -0.59030  -0.53175  81.41132  1      106
siesta:     -2.63900  -0.13978  81.41132  2      107
siesta:     -0.40557  -2.60678  81.41132  2      108
siesta:      0.59030   0.53175  88.70189  1      109
siesta:      2.63900   0.13978  88.70189  2      110
siesta:      0.40557   2.60678  88.70189  2      111
siesta:     -0.59030  -0.53175  86.27170  1      112
siesta:     -2.63900  -0.13978  86.27170  2      113
siesta:     -0.40557  -2.60678  86.27170  2      114
siesta:      0.59030   0.53175  93.56227  1      115
siesta:      2.63900   0.13978  93.56227  2      116
siesta:      0.40557   2.60678  93.56227  2      117
siesta:     -0.59030  -0.53175  91.13208  1      118
siesta:     -2.63900  -0.13978  91.13208  2      119
siesta:     -0.40557  -2.60678  91.13208  2      120
siesta:      0.59030   0.53175  98.42264  1      121
siesta:      2.63900   0.13978  98.42264  2      122
siesta:      0.40557   2.60678  98.42264  2      123
siesta:     -0.59030  -0.53175  95.99246  1      124
siesta:     -2.63900  -0.13978  95.99246  2      125
siesta:     -0.40557  -2.60678  95.99246  2      126
siesta:      0.59030   0.53175 103.28302  1      127
siesta:      2.63900   0.13978 103.28302  2      128
siesta:      0.40557   2.60678 103.28302  2      129
siesta:     -0.59030  -0.53175 100.85283  1      130
siesta:     -2.63900  -0.13978 100.85283  2      131
siesta:     -0.40557  -2.60678 100.85283  2      132
siesta:      0.59030   0.53175 108.14340  1      133
siesta:      2.63900   0.13978 108.14340  2      134
siesta:      0.40557   2.60678 108.14340  2      135
siesta:     -0.59030  -0.53175 105.71321  1      136
siesta:     -2.63900  -0.13978 105.71321  2      137
siesta:     -0.40557  -2.60678 105.71321  2      138
siesta:      0.59030   0.53175 113.00378  1      139
siesta:      2.63900   0.13978 113.00378  2      140
siesta:      0.40557   2.60678 113.00378  2      141
siesta:     -0.59030  -0.53175 110.57359  1      142
siesta:     -2.63900  -0.13978 110.57359  2      143
siesta:     -0.40557  -2.60678 110.57359  2      144
siesta:      0.59030   0.53175 117.86416  1      145
siesta:      2.63900   0.13978 117.86416  2      146
siesta:      0.40557   2.60678 117.86416  2      147
siesta:     -0.59030  -0.53175 115.43397  1      148
siesta:     -2.63900  -0.13978 115.43397  2      149
siesta:     -0.40557  -2.60678 115.43397  2      150
siesta:      0.59030   0.53175 122.72453  1      151
siesta:      2.63900   0.13978 122.72453  2      152
siesta:      0.40557   2.60678 122.72453  2      153
siesta:     -0.59030  -0.53175 120.29434  1      154
siesta:     -2.63900  -0.13978 120.29434  2      155
siesta:     -0.40557  -2.60678 120.29434  2      156
siesta:      0.59030   0.53175 127.58491  1      157
siesta:      2.63900   0.13978 127.58491  2      158
siesta:      0.40557   2.60678 127.58491  2      159
siesta:     -0.59030  -0.53175 125.15472  1      160
siesta:     -2.63900  -0.13978 125.15472  2      161
siesta:     -0.40557  -2.60678 125.15472  2      162
siesta:      0.59030   0.53175 132.44529  1      163
siesta:      2.63900   0.13978 132.44529  2      164
siesta:      0.40557   2.60678 132.44529  2      165
siesta:     -0.59030  -0.53175 130.01510  1      166
siesta:     -2.63900  -0.13978 130.01510  2      167
siesta:     -0.40557  -2.60678 130.01510  2      168
siesta:      0.59030   0.53175 137.30567  1      169
siesta:      2.63900   0.13978 137.30567  2      170
siesta:      0.40557   2.60678 137.30567  2      171
siesta:     -0.59030  -0.53175 134.87548  1      172
siesta:     -2.63900  -0.13978 134.87548  2      173
siesta:     -0.40557  -2.60678 134.87548  2      174
siesta:      0.59030   0.53175 142.16604  1      175
siesta:      2.63900   0.13978 142.16604  2      176
siesta:      0.40557   2.60678 142.16604  2      177
siesta:     -0.59030  -0.53175 139.73585  1      178
siesta:     -2.63900  -0.13978 139.73585  2      179
siesta:     -0.40557  -2.60678 139.73585  2      180
siesta:      0.59030   0.53175 147.02642  1      181
siesta:      2.63900   0.13978 147.02642  2      182
siesta:      0.40557   2.60678 147.02642  2      183
siesta:     -0.59030  -0.53175 144.59623  1      184
siesta:     -2.63900  -0.13978 144.59623  2      185
siesta:     -0.40557  -2.60678 144.59623  2      186
siesta:      0.59030   0.53175 151.88680  1      187
siesta:      2.63900   0.13978 151.88680  2      188
siesta:      0.40557   2.60678 151.88680  2      189
siesta:     -0.59030  -0.53175 149.45661  1      190
siesta:     -2.63900  -0.13978 149.45661  2      191
siesta:     -0.40557  -2.60678 149.45661  2      192
siesta:      0.59030   0.53175 156.74718  1      193
siesta:      2.63900   0.13978 156.74718  2      194
siesta:      0.40557   2.60678 156.74718  2      195
siesta:     -0.59030  -0.53175 154.31699  1      196
siesta:     -2.63900  -0.13978 154.31699  2      197
siesta:     -0.40557  -2.60678 154.31699  2      198
siesta:      0.59030   0.53175 161.60755  1      199
siesta:      2.63900   0.13978 161.60755  2      200
siesta:      0.40557   2.60678 161.60755  2      201
siesta:     -0.59030  -0.53175 159.17736  1      202
siesta:     -2.63900  -0.13978 159.17736  2      203
siesta:     -0.40557  -2.60678 159.17736  2      204
siesta:      0.59030   0.53175 166.46793  1      205
siesta:      2.63900   0.13978 166.46793  2      206
siesta:      0.40557   2.60678 166.46793  2      207
siesta:     -0.59030  -0.53175 164.03774  1      208
siesta:     -2.63900  -0.13978 164.03774  2      209
siesta:     -0.40557  -2.60678 164.03774  2      210
siesta:      0.59030   0.53175 171.32831  1      211
siesta:      2.63900   0.13978 171.32831  2      212
siesta:      0.40557   2.60678 171.32831  2      213
siesta:     -0.59030  -0.53175 168.89812  1      214
siesta:     -2.63900  -0.13978 168.89812  2      215
siesta:     -0.40557  -2.60678 168.89812  2      216
siesta:      0.59030   0.53175 176.18869  1      217
siesta:      2.63900   0.13978 176.18869  2      218
siesta:      0.40557   2.60678 176.18869  2      219
siesta:     -0.59030  -0.53175 173.75850  1      220
siesta:     -2.63900  -0.13978 173.75850  2      221
siesta:     -0.40557  -2.60678 173.75850  2      222
siesta:      0.59030   0.53175 181.04906  1      223
siesta:      2.63900   0.13978 181.04906  2      224
siesta:      0.40557   2.60678 181.04906  2      225
siesta:     -0.59030  -0.53175 178.61887  1      226
siesta:     -2.63900  -0.13978 178.61887  2      227
siesta:     -0.40557  -2.60678 178.61887  2      228
siesta:      0.59030   0.53175 185.90944  1      229
siesta:      2.63900   0.13978 185.90944  2      230
siesta:      0.40557   2.60678 185.90944  2      231
siesta:     -0.59030  -0.53175 183.47925  1      232
siesta:     -2.63900  -0.13978 183.47925  2      233
siesta:     -0.40557  -2.60678 183.47925  2      234
siesta:      0.59030   0.53175 190.76982  1      235
siesta:      2.63900   0.13978 190.76982  2      236
siesta:      0.40557   2.60678 190.76982  2      237
siesta:     -0.59030  -0.53175 188.33963  1      238
siesta:     -2.63900  -0.13978 188.33963  2      239
siesta:     -0.40557  -2.60678 188.33963  2      240
siesta:      0.59030   0.53175 195.63020  1      241
siesta:      2.63900   0.13978 195.63020  2      242
siesta:      0.40557   2.60678 195.63020  2      243
siesta:     -0.59030  -0.53175 193.20001  1      244
siesta:     -2.63900  -0.13978 193.20001  2      245
siesta:     -0.40557  -2.60678 193.20001  2      246
siesta:      0.59030   0.53175 200.49057  1      247
siesta:      2.63900   0.13978 200.49057  2      248
siesta:      0.40557   2.60678 200.49057  2      249
siesta:     -0.59030  -0.53175 198.06038  1      250
siesta:     -2.63900  -0.13978 198.06038  2      251
siesta:     -0.40557  -2.60678 198.06038  2      252
siesta:      0.59030   0.53175 205.35095  1      253
siesta:      2.63900   0.13978 205.35095  2      254
siesta:      0.40557   2.60678 205.35095  2      255
siesta:     -0.59030  -0.53175 202.92076  1      256
siesta:     -2.63900  -0.13978 202.92076  2      257
siesta:     -0.40557  -2.60678 202.92076  2      258
siesta:      0.59030   0.53175 210.21133  1      259
siesta:      2.63900   0.13978 210.21133  2      260
siesta:      0.40557   2.60678 210.21133  2      261
siesta:     -0.59030  -0.53175 207.78114  1      262
siesta:     -2.63900  -0.13978 207.78114  2      263
siesta:     -0.40557  -2.60678 207.78114  2      264
siesta:      0.59030   0.53175 215.07171  1      265
siesta:      2.63900   0.13978 215.07171  2      266
siesta:      0.40557   2.60678 215.07171  2      267
siesta:     -0.59030  -0.53175 212.64152  1      268
siesta:     -2.63900  -0.13978 212.64152  2      269
siesta:     -0.40557  -2.60678 212.64152  2      270
siesta:      0.59030   0.53175 219.93208  1      271
siesta:      2.63900   0.13978 219.93208  2      272
siesta:      0.40557   2.60678 219.93208  2      273
siesta:     -0.59030  -0.53175 217.50189  1      274
siesta:     -2.63900  -0.13978 217.50189  2      275
siesta:     -0.40557  -2.60678 217.50189  2      276
siesta:      0.59030   0.53175 224.79246  1      277
siesta:      2.63900   0.13978 224.79246  2      278
siesta:      0.40557   2.60678 224.79246  2      279
siesta:     -0.59030  -0.53175 222.36227  1      280
siesta:     -2.63900  -0.13978 222.36227  2      281
siesta:     -0.40557  -2.60678 222.36227  2      282
siesta:      0.59030   0.53175 229.65284  1      283
siesta:      2.63900   0.13978 229.65284  2      284
siesta:      0.40557   2.60678 229.65284  2      285
siesta:     -0.59030  -0.53175 227.22265  1      286
siesta:     -2.63900  -0.13978 227.22265  2      287
siesta:     -0.40557  -2.60678 227.22265  2      288
siesta:      0.59030   0.53175 234.51322  1      289
siesta:      2.63900   0.13978 234.51322  2      290
siesta:      0.40557   2.60678 234.51322  2      291
siesta:     -0.59030  -0.53175 232.08303  1      292
siesta:     -2.63900  -0.13978 232.08303  2      293
siesta:     -0.40557  -2.60678 232.08303  2      294
siesta:      0.59030   0.53175 239.37359  1      295
siesta:      2.63900   0.13978 239.37359  2      296
siesta:      0.40557   2.60678 239.37359  2      297
siesta:     -0.59030  -0.53175 236.94340  1      298
siesta:     -2.63900  -0.13978 236.94340  2      299
siesta:     -0.40557  -2.60678 236.94340  2      300
siesta:      0.59030   0.53175 244.23397  1      301
siesta:      2.63900   0.13978 244.23397  2      302
siesta:      0.40557   2.60678 244.23397  2      303
siesta:     -0.59030  -0.53175 241.80378  1      304
siesta:     -2.63900  -0.13978 241.80378  2      305
siesta:     -0.40557  -2.60678 241.80378  2      306
siesta:      0.59030   0.53175 249.09435  1      307
siesta:      2.63900   0.13978 249.09435  2      308
siesta:      0.40557   2.60678 249.09435  2      309
siesta:     -0.59030  -0.53175 246.66416  1      310
siesta:     -2.63900  -0.13978 246.66416  2      311
siesta:     -0.40557  -2.60678 246.66416  2      312
siesta:      0.59030   0.53175 253.95473  1      313
siesta:      2.63900   0.13978 253.95473  2      314
siesta:      0.40557   2.60678 253.95473  2      315
siesta:     -0.59030  -0.53175 251.52454  1      316
siesta:     -2.63900  -0.13978 251.52454  2      317
siesta:     -0.40557  -2.60678 251.52454  2      318
siesta:      0.59030   0.53175 258.81510  1      319
siesta:      2.63900   0.13978 258.81510  2      320
siesta:      0.40557   2.60678 258.81510  2      321
siesta:     -0.59030  -0.53175 256.38491  1      322
siesta:     -2.63900  -0.13978 256.38491  2      323
siesta:     -0.40557  -2.60678 256.38491  2      324
siesta:      0.59030   0.53175 263.67548  1      325
siesta:      2.63900   0.13978 263.67548  2      326
siesta:      0.40557   2.60678 263.67548  2      327
siesta:     -0.59030  -0.53175 261.24529  1      328
siesta:     -2.63900  -0.13978 261.24529  2      329
siesta:     -0.40557  -2.60678 261.24529  2      330
siesta:      0.59030   0.53175 268.53586  1      331
siesta:      2.63900   0.13978 268.53586  2      332
siesta:      0.40557   2.60678 268.53586  2      333
siesta:     -0.59030  -0.53175 266.10567  1      334
siesta:     -2.63900  -0.13978 266.10567  2      335
siesta:     -0.40557  -2.60678 266.10567  2      336
siesta:      0.59030   0.53175 273.39624  1      337
siesta:      2.63900   0.13978 273.39624  2      338
siesta:      0.40557   2.60678 273.39624  2      339
siesta:     -0.59030  -0.53175 270.96605  1      340
siesta:     -2.63900  -0.13978 270.96605  2      341
siesta:     -0.40557  -2.60678 270.96605  2      342
siesta:      0.59030   0.53175 278.25661  1      343
siesta:      2.63900   0.13978 278.25661  2      344
siesta:      0.40557   2.60678 278.25661  2      345
siesta:     -0.59030  -0.53175 275.82642  1      346
siesta:     -2.63900  -0.13978 275.82642  2      347
siesta:     -0.40557  -2.60678 275.82642  2      348
siesta:      0.59030   0.53175 283.11699  1      349
siesta:      2.63900   0.13978 283.11699  2      350
siesta:      0.40557   2.60678 283.11699  2      351
siesta:     -0.59030  -0.53175 280.68680  1      352
siesta:     -2.63900  -0.13978 280.68680  2      353
siesta:     -0.40557  -2.60678 280.68680  2      354
siesta:      0.59030   0.53175 287.97737  1      355
siesta:      2.63900   0.13978 287.97737  2      356
siesta:      0.40557   2.60678 287.97737  2      357
siesta:     -0.59030  -0.53175 285.54718  1      358
siesta:     -2.63900  -0.13978 285.54718  2      359
siesta:     -0.40557  -2.60678 285.54718  2      360
siesta:      0.59030   0.53175 292.83775  1      361
siesta:      2.63900   0.13978 292.83775  2      362
siesta:      0.40557   2.60678 292.83775  2      363
siesta:     -0.59030  -0.53175 290.40756  1      364
siesta:     -2.63900  -0.13978 290.40756  2      365
siesta:     -0.40557  -2.60678 290.40756  2      366
siesta:      0.59030   0.53175 297.69812  1      367
siesta:      2.63900   0.13978 297.69812  2      368
siesta:      0.40557   2.60678 297.69812  2      369
siesta:     -0.59030  -0.53175 295.26793  1      370
siesta:     -2.63900  -0.13978 295.26793  2      371
siesta:     -0.40557  -2.60678 295.26793  2      372
siesta:      0.59030   0.53175 302.55850  1      373
siesta:      2.63900   0.13978 302.55850  2      374
siesta:      0.40557   2.60678 302.55850  2      375
siesta:     -0.59030  -0.53175 300.12831  1      376
siesta:     -2.63900  -0.13978 300.12831  2      377
siesta:     -0.40557  -2.60678 300.12831  2      378
siesta:      0.59030   0.53175 307.41888  1      379
siesta:      2.63900   0.13978 307.41888  2      380
siesta:      0.40557   2.60678 307.41888  2      381
siesta:     -0.59030  -0.53175 304.98869  1      382
siesta:     -2.63900  -0.13978 304.98869  2      383
siesta:     -0.40557  -2.60678 304.98869  2      384
siesta:      0.59030   0.53175 312.27926  1      385
siesta:      2.63900   0.13978 312.27926  2      386
siesta:      0.40557   2.60678 312.27926  2      387
siesta:     -0.59030  -0.53175 309.84907  1      388
siesta:     -2.63900  -0.13978 309.84907  2      389
siesta:     -0.40557  -2.60678 309.84907  2      390
siesta:      0.59030   0.53175 317.13963  1      391
siesta:      2.63900   0.13978 317.13963  2      392
siesta:      0.40557   2.60678 317.13963  2      393
siesta:     -0.59030  -0.53175 314.70945  1      394
siesta:     -2.63900  -0.13978 314.70945  2      395
siesta:     -0.40557  -2.60678 314.70945  2      396
siesta:      0.59030   0.53175 322.00001  1      397
siesta:      2.63900   0.13978 322.00001  2      398
siesta:      0.40557   2.60678 322.00001  2      399
siesta:     -0.59030  -0.53175 319.56982  1      400
siesta:     -2.63900  -0.13978 319.56982  2      401
siesta:     -0.40557  -2.60678 319.56982  2      402
siesta:      0.59030   0.53175 326.86039  1      403
siesta:      2.63900   0.13978 326.86039  2      404
siesta:      0.40557   2.60678 326.86039  2      405
siesta:     -0.59030  -0.53175 324.43020  1      406
siesta:     -2.63900  -0.13978 324.43020  2      407
siesta:     -0.40557  -2.60678 324.43020  2      408
siesta:      0.59030   0.53175 331.72077  1      409
siesta:      2.63900   0.13978 331.72077  2      410
siesta:      0.40557   2.60678 331.72077  2      411
siesta:     -0.59030  -0.53175 329.29058  1      412
siesta:     -2.63900  -0.13978 329.29058  2      413
siesta:     -0.40557  -2.60678 329.29058  2      414
siesta:      0.59030   0.53175 336.58114  1      415
siesta:      2.63900   0.13978 336.58114  2      416
siesta:      0.40557   2.60678 336.58114  2      417
siesta:     -0.59030  -0.53175 334.15096  1      418
siesta:     -2.63900  -0.13978 334.15096  2      419
siesta:     -0.40557  -2.60678 334.15096  2      420
siesta:      0.59030   0.53175 341.44152  1      421
siesta:      2.63900   0.13978 341.44152  2      422
siesta:      0.40557   2.60678 341.44152  2      423
siesta:     -0.59030  -0.53175 339.01133  1      424
siesta:     -2.63900  -0.13978 339.01133  2      425
siesta:     -0.40557  -2.60678 339.01133  2      426
siesta:      0.59030   0.53175 346.30190  1      427
siesta:      2.63900   0.13978 346.30190  2      428
siesta:      0.40557   2.60678 346.30190  2      429
siesta:     -0.59030  -0.53175 343.87171  1      430
siesta:     -2.63900  -0.13978 343.87171  2      431
siesta:     -0.40557  -2.60678 343.87171  2      432
siesta:      0.59030   0.53175 351.16228  1      433
siesta:      2.63900   0.13978 351.16228  2      434
siesta:      0.40557   2.60678 351.16228  2      435
siesta:     -0.59030  -0.53175 348.73209  1      436
siesta:     -2.63900  -0.13978 348.73209  2      437
siesta:     -0.40557  -2.60678 348.73209  2      438
siesta:      0.59030   0.53175 356.02265  1      439
siesta:      2.63900   0.13978 356.02265  2      440
siesta:      0.40557   2.60678 356.02265  2      441
siesta:     -0.59030  -0.53175 353.59247  1      442
siesta:     -2.63900  -0.13978 353.59247  2      443
siesta:     -0.40557  -2.60678 353.59247  2      444
siesta:      0.59030   0.53175 360.88303  1      445
siesta:      2.63900   0.13978 360.88303  2      446
siesta:      0.40557   2.60678 360.88303  2      447
siesta:     -0.59030  -0.53175 358.45284  1      448
siesta:     -2.63900  -0.13978 358.45284  2      449
siesta:     -0.40557  -2.60678 358.45284  2      450
siesta:      0.59030   0.53175 365.74341  1      451
siesta:      2.63900   0.13978 365.74341  2      452
siesta:      0.40557   2.60678 365.74341  2      453
siesta:     -0.59030  -0.53175 363.31322  1      454
siesta:     -2.63900  -0.13978 363.31322  2      455
siesta:     -0.40557  -2.60678 363.31322  2      456
siesta:      0.59030   0.53175 370.60379  1      457
siesta:      2.63900   0.13978 370.60379  2      458
siesta:      0.40557   2.60678 370.60379  2      459
siesta:     -0.59030  -0.53175 368.17360  1      460
siesta:     -2.63900  -0.13978 368.17360  2      461
siesta:     -0.40557  -2.60678 368.17360  2      462
siesta:      0.59030   0.53175 375.46416  1      463
siesta:      2.63900   0.13978 375.46416  2      464
siesta:      0.40557   2.60678 375.46416  2      465
siesta:     -0.59030  -0.53175 373.03398  1      466
siesta:     -2.63900  -0.13978 373.03398  2      467
siesta:     -0.40557  -2.60678 373.03398  2      468
siesta:      0.59030   0.53175 380.32454  1      469
siesta:      2.63900   0.13978 380.32454  2      470
siesta:      0.40557   2.60678 380.32454  2      471
siesta:     -0.59030  -0.53175 377.89435  1      472
siesta:     -2.63900  -0.13978 377.89435  2      473
siesta:     -0.40557  -2.60678 377.89435  2      474
siesta:      0.59030   0.53175 385.18492  1      475
siesta:      2.63900   0.13978 385.18492  2      476
siesta:      0.40557   2.60678 385.18492  2      477
siesta:     -0.59030  -0.53175 382.75473  1      478
siesta:     -2.63900  -0.13978 382.75473  2      479
siesta:     -0.40557  -2.60678 382.75473  2      480
siesta:      0.59030   0.53175 390.04530  1      481
siesta:      2.63900   0.13978 390.04530  2      482
siesta:      0.40557   2.60678 390.04530  2      483
siesta:     -0.59030  -0.53175 387.61511  1      484
siesta:     -2.63900  -0.13978 387.61511  2      485
siesta:     -0.40557  -2.60678 387.61511  2      486
siesta:      0.59030   0.53175 394.90567  1      487
siesta:      2.63900   0.13978 394.90567  2      488
siesta:      0.40557   2.60678 394.90567  2      489
siesta:     -0.59030  -0.53175 392.47549  1      490
siesta:     -2.63900  -0.13978 392.47549  2      491
siesta:     -0.40557  -2.60678 392.47549  2      492
siesta:      0.59030   0.53175 399.76605  1      493
siesta:      2.63900   0.13978 399.76605  2      494
siesta:      0.40557   2.60678 399.76605  2      495
siesta:     -0.59030  -0.53175 397.33586  1      496
siesta:     -2.63900  -0.13978 397.33586  2      497
siesta:     -0.40557  -2.60678 397.33586  2      498
siesta:      0.59030   0.53175 404.62643  1      499
siesta:      2.63900   0.13978 404.62643  2      500
siesta:      0.40557   2.60678 404.62643  2      501
siesta:     -0.59030  -0.53175 402.19624  1      502
siesta:     -2.63900  -0.13978 402.19624  2      503
siesta:     -0.40557  -2.60678 402.19624  2      504
siesta:      0.59030   0.53175 409.48681  1      505
siesta:      2.63900   0.13978 409.48681  2      506
siesta:      0.40557   2.60678 409.48681  2      507
siesta:     -0.59030  -0.53175 407.05662  1      508
siesta:     -2.63900  -0.13978 407.05662  2      509
siesta:     -0.40557  -2.60678 407.05662  2      510
siesta:      0.59030   0.53175 414.34718  1      511
siesta:      2.63900   0.13978 414.34718  2      512
siesta:      0.40557   2.60678 414.34718  2      513
siesta:     -0.59030  -0.53175 411.91700  1      514
siesta:     -2.63900  -0.13978 411.91700  2      515
siesta:     -0.40557  -2.60678 411.91700  2      516
siesta:      0.59030   0.53175 419.20756  1      517
siesta:      2.63900   0.13978 419.20756  2      518
siesta:      0.40557   2.60678 419.20756  2      519
siesta:     -0.59030  -0.53175 416.77737  1      520
siesta:     -2.63900  -0.13978 416.77737  2      521
siesta:     -0.40557  -2.60678 416.77737  2      522
siesta:      0.59030   0.53175 424.06794  1      523
siesta:      2.63900   0.13978 424.06794  2      524
siesta:      0.40557   2.60678 424.06794  2      525
siesta:     -0.59030  -0.53175 421.63775  1      526
siesta:     -2.63900  -0.13978 421.63775  2      527
siesta:     -0.40557  -2.60678 421.63775  2      528
siesta:      0.59030   0.53175 428.92832  1      529
siesta:      2.63900   0.13978 428.92832  2      530
siesta:      0.40557   2.60678 428.92832  2      531
siesta:     -0.59030  -0.53175 426.49813  1      532
siesta:     -2.63900  -0.13978 426.49813  2      533
siesta:     -0.40557  -2.60678 426.49813  2      534
siesta:      0.59030   0.53175 433.78869  1      535
siesta:      2.63900   0.13978 433.78869  2      536
siesta:      0.40557   2.60678 433.78869  2      537
siesta:     -0.59030  -0.53175 431.35851  1      538
siesta:     -2.63900  -0.13978 431.35851  2      539
siesta:     -0.40557  -2.60678 431.35851  2      540
siesta:      0.59030   0.53175 438.64907  1      541
siesta:      2.63900   0.13978 438.64907  2      542
siesta:      0.40557   2.60678 438.64907  2      543
siesta:     -0.59030  -0.53175 436.21888  1      544
siesta:     -2.63900  -0.13978 436.21888  2      545
siesta:     -0.40557  -2.60678 436.21888  2      546
siesta:      0.59030   0.53175 443.50945  1      547
siesta:      2.63900   0.13978 443.50945  2      548
siesta:      0.40557   2.60678 443.50945  2      549
siesta:     -0.59030  -0.53175 441.07926  1      550
siesta:     -2.63900  -0.13978 441.07926  2      551
siesta:     -0.40557  -2.60678 441.07926  2      552
siesta:      0.59030   0.53175 448.36983  1      553
siesta:      2.63900   0.13978 448.36983  2      554
siesta:      0.40557   2.60678 448.36983  2      555
siesta:     -0.59030  -0.53175 445.93964  1      556
siesta:     -2.63900  -0.13978 445.93964  2      557
siesta:     -0.40557  -2.60678 445.93964  2      558
siesta:      0.59030   0.53175 453.23020  1      559
siesta:      2.63900   0.13978 453.23020  2      560
siesta:      0.40557   2.60678 453.23020  2      561
siesta:     -0.59030  -0.53175 450.80002  1      562
siesta:     -2.63900  -0.13978 450.80002  2      563
siesta:     -0.40557  -2.60678 450.80002  2      564
siesta:      0.59030   0.53175 458.09058  1      565
siesta:      2.63900   0.13978 458.09058  2      566
siesta:      0.40557   2.60678 458.09058  2      567
siesta:     -0.59030  -0.53175 455.66039  1      568
siesta:     -2.63900  -0.13978 455.66039  2      569
siesta:     -0.40557  -2.60678 455.66039  2      570
siesta:      0.59030   0.53175 462.95096  1      571
siesta:      2.63900   0.13978 462.95096  2      572
siesta:      0.40557   2.60678 462.95096  2      573
siesta:     -0.59030  -0.53175 460.52077  1      574
siesta:     -2.63900  -0.13978 460.52077  2      575
siesta:     -0.40557  -2.60678 460.52077  2      576
siesta:      0.59030   0.53175 467.81134  1      577
siesta:      2.63900   0.13978 467.81134  2      578
siesta:      0.40557   2.60678 467.81134  2      579
siesta:     -0.59030  -0.53175 465.38115  1      580
siesta:     -2.63900  -0.13978 465.38115  2      581
siesta:     -0.40557  -2.60678 465.38115  2      582
siesta:      0.59030   0.53175 472.67171  1      583
siesta:      2.63900   0.13978 472.67171  2      584
siesta:      0.40557   2.60678 472.67171  2      585
siesta:     -0.59030  -0.53175 470.24153  1      586
siesta:     -2.63900  -0.13978 470.24153  2      587
siesta:     -0.40557  -2.60678 470.24153  2      588
siesta:      0.59030   0.53175 477.53209  1      589
siesta:      2.63900   0.13978 477.53209  2      590
siesta:      0.40557   2.60678 477.53209  2      591
siesta:     -0.59030  -0.53175 475.10190  1      592
siesta:     -2.63900  -0.13978 475.10190  2      593
siesta:     -0.40557  -2.60678 475.10190  2      594
siesta:      0.59030   0.53175 482.39247  1      595
siesta:      2.63900   0.13978 482.39247  2      596
siesta:      0.40557   2.60678 482.39247  2      597
siesta:     -0.59030  -0.53175 479.96228  1      598
siesta:     -2.63900  -0.13978 479.96228  2      599
siesta:     -0.40557  -2.60678 479.96228  2      600
siesta:      0.59030   0.53175 487.25285  1      601
siesta:      2.63900   0.13978 487.25285  2      602
siesta:      0.40557   2.60678 487.25285  2      603
siesta:     -0.59030  -0.53175 484.82266  1      604
siesta:     -2.63900  -0.13978 484.82266  2      605
siesta:     -0.40557  -2.60678 484.82266  2      606
siesta:      0.59030   0.53175 492.11322  1      607
siesta:      2.63900   0.13978 492.11322  2      608
siesta:      0.40557   2.60678 492.11322  2      609
siesta:     -0.59030  -0.53175 489.68304  1      610
siesta:     -2.63900  -0.13978 489.68304  2      611
siesta:     -0.40557  -2.60678 489.68304  2      612
siesta:      0.59030   0.53175 496.97360  1      613
siesta:      2.63900   0.13978 496.97360  2      614
siesta:      0.40557   2.60678 496.97360  2      615
siesta:     -0.59030  -0.53175 494.54341  1      616
siesta:     -2.63900  -0.13978 494.54341  2      617
siesta:     -0.40557  -2.60678 494.54341  2      618
siesta:      0.59030   0.53175 501.83398  1      619
siesta:      2.63900   0.13978 501.83398  2      620
siesta:      0.40557   2.60678 501.83398  2      621
siesta:     -0.59030  -0.53175 499.40379  1      622
siesta:     -2.63900  -0.13978 499.40379  2      623
siesta:     -0.40557  -2.60678 499.40379  2      624
siesta:      0.59030   0.53175 506.69436  1      625
siesta:      2.63900   0.13978 506.69436  2      626
siesta:      0.40557   2.60678 506.69436  2      627
siesta:     -0.59030  -0.53175 504.26417  1      628
siesta:     -2.63900  -0.13978 504.26417  2      629
siesta:     -0.40557  -2.60678 504.26417  2      630
siesta:      0.59030   0.53175 511.55473  1      631
siesta:      2.63900   0.13978 511.55473  2      632
siesta:      0.40557   2.60678 511.55473  2      633
siesta:     -0.59030  -0.53175 509.12455  1      634
siesta:     -2.63900  -0.13978 509.12455  2      635
siesta:     -0.40557  -2.60678 509.12455  2      636
siesta:      0.59030   0.53175 516.41511  1      637
siesta:      2.63900   0.13978 516.41511  2      638
siesta:      0.40557   2.60678 516.41511  2      639
siesta:     -0.59030  -0.53175 513.98492  1      640
siesta:     -2.63900  -0.13978 513.98492  2      641
siesta:     -0.40557  -2.60678 513.98492  2      642
siesta:      0.59030   0.53175 521.27549  1      643
siesta:      2.63900   0.13978 521.27549  2      644
siesta:      0.40557   2.60678 521.27549  2      645
siesta:     -0.59030  -0.53175 518.84530  1      646
siesta:     -2.63900  -0.13978 518.84530  2      647
siesta:     -0.40557  -2.60678 518.84530  2      648
siesta:      0.59030   0.53175 526.13587  1      649
siesta:      2.63900   0.13978 526.13587  2      650
siesta:      0.40557   2.60678 526.13587  2      651
siesta:     -0.59030  -0.53175 523.70568  1      652
siesta:     -2.63900  -0.13978 523.70568  2      653
siesta:     -0.40557  -2.60678 523.70568  2      654
siesta:      0.59030   0.53175 530.99625  1      655
siesta:      2.63900   0.13978 530.99625  2      656
siesta:      0.40557   2.60678 530.99625  2      657
siesta:     -0.59030  -0.53175 528.56606  1      658
siesta:     -2.63900  -0.13978 528.56606  2      659
siesta:     -0.40557  -2.60678 528.56606  2      660
siesta:      0.59030   0.53175 535.85662  1      661
siesta:      2.63900   0.13978 535.85662  2      662
siesta:      0.40557   2.60678 535.85662  2      663
siesta:     -0.59030  -0.53175 533.42643  1      664
siesta:     -2.63900  -0.13978 533.42643  2      665
siesta:     -0.40557  -2.60678 533.42643  2      666
siesta:      0.59030   0.53175 540.71700  1      667
siesta:      2.63900   0.13978 540.71700  2      668
siesta:      0.40557   2.60678 540.71700  2      669
siesta:     -0.59030  -0.53175 538.28681  1      670
siesta:     -2.63900  -0.13978 538.28681  2      671
siesta:     -0.40557  -2.60678 538.28681  2      672
siesta:      0.59030   0.53175 545.57738  1      673
siesta:      2.63900   0.13978 545.57738  2      674
siesta:      0.40557   2.60678 545.57738  2      675
siesta:     -0.59030  -0.53175 543.14719  1      676
siesta:     -2.63900  -0.13978 543.14719  2      677
siesta:     -0.40557  -2.60678 543.14719  2      678
siesta:      0.59030   0.53175 550.43776  1      679
siesta:      2.63900   0.13978 550.43776  2      680
siesta:      0.40557   2.60678 550.43776  2      681
siesta:     -0.59030  -0.53175 548.00757  1      682
siesta:     -2.63900  -0.13978 548.00757  2      683
siesta:     -0.40557  -2.60678 548.00757  2      684
siesta:      0.59030   0.53175 555.29813  1      685
siesta:      2.63900   0.13978 555.29813  2      686
siesta:      0.40557   2.60678 555.29813  2      687
siesta:     -0.59030  -0.53175 552.86794  1      688
siesta:     -2.63900  -0.13978 552.86794  2      689
siesta:     -0.40557  -2.60678 552.86794  2      690
siesta:      0.59030   0.53175 560.15851  1      691
siesta:      2.63900   0.13978 560.15851  2      692
siesta:      0.40557   2.60678 560.15851  2      693
siesta:     -0.59030  -0.53175 557.72832  1      694
siesta:     -2.63900  -0.13978 557.72832  2      695
siesta:     -0.40557  -2.60678 557.72832  2      696
siesta:      0.59030   0.53175 565.01889  1      697
siesta:      2.63900   0.13978 565.01889  2      698
siesta:      0.40557   2.60678 565.01889  2      699
siesta:     -0.59030  -0.53175 562.58870  1      700
siesta:     -2.63900  -0.13978 562.58870  2      701
siesta:     -0.40557  -2.60678 562.58870  2      702
siesta:      0.59030   0.53175 569.87927  1      703
siesta:      2.63900   0.13978 569.87927  2      704
siesta:      0.40557   2.60678 569.87927  2      705
siesta:     -0.59030  -0.53175 567.44908  1      706
siesta:     -2.63900  -0.13978 567.44908  2      707
siesta:     -0.40557  -2.60678 567.44908  2      708
siesta:      0.59030   0.53175 574.73964  1      709
siesta:      2.63900   0.13978 574.73964  2      710
siesta:      0.40557   2.60678 574.73964  2      711
siesta:     -0.59030  -0.53175 572.30945  1      712
siesta:     -2.63900  -0.13978 572.30945  2      713
siesta:     -0.40557  -2.60678 572.30945  2      714
siesta:      0.59030   0.53175 579.60002  1      715
siesta:      2.63900   0.13978 579.60002  2      716
siesta:      0.40557   2.60678 579.60002  2      717
siesta:     -0.59030  -0.53175 577.16983  1      718
siesta:     -2.63900  -0.13978 577.16983  2      719
siesta:     -0.40557  -2.60678 577.16983  2      720
siesta:      0.59030   0.53175 584.46040  1      721
siesta:      2.63900   0.13978 584.46040  2      722
siesta:      0.40557   2.60678 584.46040  2      723
siesta:     -0.59030  -0.53175 582.03021  1      724
siesta:     -2.63900  -0.13978 582.03021  2      725
siesta:     -0.40557  -2.60678 582.03021  2      726
siesta:      0.59030   0.53175 589.32078  1      727
siesta:      2.63900   0.13978 589.32078  2      728
siesta:      0.40557   2.60678 589.32078  2      729
siesta:     -0.59030  -0.53175 586.89059  1      730
siesta:     -2.63900  -0.13978 586.89059  2      731
siesta:     -0.40557  -2.60678 586.89059  2      732
siesta:      0.59030   0.53175 594.18115  1      733
siesta:      2.63900   0.13978 594.18115  2      734
siesta:      0.40557   2.60678 594.18115  2      735
siesta:     -0.59030  -0.53175 591.75096  1      736
siesta:     -2.63900  -0.13978 591.75096  2      737
siesta:     -0.40557  -2.60678 591.75096  2      738
siesta:      0.59030   0.53175 599.04153  1      739
siesta:      2.63900   0.13978 599.04153  2      740
siesta:      0.40557   2.60678 599.04153  2      741
siesta:     -0.59030  -0.53175 596.61134  1      742
siesta:     -2.63900  -0.13978 596.61134  2      743
siesta:     -0.40557  -2.60678 596.61134  2      744
siesta:      0.59030   0.53175 603.90191  1      745
siesta:      2.63900   0.13978 603.90191  2      746
siesta:      0.40557   2.60678 603.90191  2      747
siesta:     -0.59030  -0.53175 601.47172  1      748
siesta:     -2.63900  -0.13978 601.47172  2      749
siesta:     -0.40557  -2.60678 601.47172  2      750
siesta:      0.59030   0.53175 608.76229  1      751
siesta:      2.63900   0.13978 608.76229  2      752
siesta:      0.40557   2.60678 608.76229  2      753
siesta:     -0.59030  -0.53175 606.33210  1      754
siesta:     -2.63900  -0.13978 606.33210  2      755
siesta:     -0.40557  -2.60678 606.33210  2      756
siesta:      0.59030   0.53175 613.62266  1      757
siesta:      2.63900   0.13978 613.62266  2      758
siesta:      0.40557   2.60678 613.62266  2      759
siesta:     -0.59030  -0.53175 611.19247  1      760
siesta:     -2.63900  -0.13978 611.19247  2      761
siesta:     -0.40557  -2.60678 611.19247  2      762
siesta:      0.59030   0.53175 618.48304  1      763
siesta:      2.63900   0.13978 618.48304  2      764
siesta:      0.40557   2.60678 618.48304  2      765
siesta:     -0.59030  -0.53175 616.05285  1      766
siesta:     -2.63900  -0.13978 616.05285  2      767
siesta:     -0.40557  -2.60678 616.05285  2      768
siesta:      0.59030   0.53175 623.34342  1      769
siesta:      2.63900   0.13978 623.34342  2      770
siesta:      0.40557   2.60678 623.34342  2      771
siesta:     -0.59030  -0.53175 620.91323  1      772
siesta:     -2.63900  -0.13978 620.91323  2      773
siesta:     -0.40557  -2.60678 620.91323  2      774
siesta:      0.59030   0.53175 628.20380  1      775
siesta:      2.63900   0.13978 628.20380  2      776
siesta:      0.40557   2.60678 628.20380  2      777
siesta:     -0.59030  -0.53175 625.77361  1      778
siesta:     -2.63900  -0.13978 625.77361  2      779
siesta:     -0.40557  -2.60678 625.77361  2      780
siesta:      0.59030   0.53175 633.06417  1      781
siesta:      2.63900   0.13978 633.06417  2      782
siesta:      0.40557   2.60678 633.06417  2      783
siesta:     -0.59030  -0.53175 630.63398  1      784
siesta:     -2.63900  -0.13978 630.63398  2      785
siesta:     -0.40557  -2.60678 630.63398  2      786
siesta:      0.59030   0.53175 637.92455  1      787
siesta:      2.63900   0.13978 637.92455  2      788
siesta:      0.40557   2.60678 637.92455  2      789
siesta:     -0.59030  -0.53175 635.49436  1      790
siesta:     -2.63900  -0.13978 635.49436  2      791
siesta:     -0.40557  -2.60678 635.49436  2      792
siesta:      0.59030   0.53175 642.78493  1      793
siesta:      2.63900   0.13978 642.78493  2      794
siesta:      0.40557   2.60678 642.78493  2      795
siesta:     -0.59030  -0.53175 640.35474  1      796
siesta:     -2.63900  -0.13978 640.35474  2      797
siesta:     -0.40557  -2.60678 640.35474  2      798
siesta:      0.59030   0.53175 647.64531  1      799
siesta:      2.63900   0.13978 647.64531  2      800
siesta:      0.40557   2.60678 647.64531  2      801
siesta:     -0.59030  -0.53175 645.21512  1      802
siesta:     -2.63900  -0.13978 645.21512  2      803
siesta:     -0.40557  -2.60678 645.21512  2      804
siesta:      0.59030   0.53175 652.50568  1      805
siesta:      2.63900   0.13978 652.50568  2      806
siesta:      0.40557   2.60678 652.50568  2      807
siesta:     -0.59030  -0.53175 650.07549  1      808
siesta:     -2.63900  -0.13978 650.07549  2      809
siesta:     -0.40557  -2.60678 650.07549  2      810
siesta:      0.59030   0.53175 657.36606  1      811
siesta:      2.63900   0.13978 657.36606  2      812
siesta:      0.40557   2.60678 657.36606  2      813
siesta:     -0.59030  -0.53175 654.93587  1      814
siesta:     -2.63900  -0.13978 654.93587  2      815
siesta:     -0.40557  -2.60678 654.93587  2      816
siesta:      0.59030   0.53175 662.22644  1      817
siesta:      2.63900   0.13978 662.22644  2      818
siesta:      0.40557   2.60678 662.22644  2      819
siesta:     -0.59030  -0.53175 659.79625  1      820
siesta:     -2.63900  -0.13978 659.79625  2      821
siesta:     -0.40557  -2.60678 659.79625  2      822
siesta:      0.59030   0.53175 667.08682  1      823
siesta:      2.63900   0.13978 667.08682  2      824
siesta:      0.40557   2.60678 667.08682  2      825
siesta:     -0.59030  -0.53175 664.65663  1      826
siesta:     -2.63900  -0.13978 664.65663  2      827
siesta:     -0.40557  -2.60678 664.65663  2      828
siesta:      0.59030   0.53175 671.94719  1      829
siesta:      2.63900   0.13978 671.94719  2      830
siesta:      0.40557   2.60678 671.94719  2      831
siesta:     -0.59030  -0.53175 669.51700  1      832
siesta:     -2.63900  -0.13978 669.51700  2      833
siesta:     -0.40557  -2.60678 669.51700  2      834
siesta:      0.59030   0.53175 676.80757  1      835
siesta:      2.63900   0.13978 676.80757  2      836
siesta:      0.40557   2.60678 676.80757  2      837
siesta:     -0.59030  -0.53175 674.37738  1      838
siesta:     -2.63900  -0.13978 674.37738  2      839
siesta:     -0.40557  -2.60678 674.37738  2      840
siesta:      0.59030   0.53175 681.66795  1      841
siesta:      2.63900   0.13978 681.66795  2      842
siesta:      0.40557   2.60678 681.66795  2      843
siesta:     -0.59030  -0.53175 679.23776  1      844
siesta:     -2.63900  -0.13978 679.23776  2      845
siesta:     -0.40557  -2.60678 679.23776  2      846
siesta:      0.59030   0.53175 686.52833  1      847
siesta:      2.63900   0.13978 686.52833  2      848
siesta:      0.40557   2.60678 686.52833  2      849
siesta:     -0.59030  -0.53175 684.09814  1      850
siesta:     -2.63900  -0.13978 684.09814  2      851
siesta:     -0.40557  -2.60678 684.09814  2      852
siesta:      0.59030   0.53175 691.38870  1      853
siesta:      2.63900   0.13978 691.38870  2      854
siesta:      0.40557   2.60678 691.38870  2      855
siesta:     -0.59030  -0.53175 688.95851  1      856
siesta:     -2.63900  -0.13978 688.95851  2      857
siesta:     -0.40557  -2.60678 688.95851  2      858
siesta:      0.59030   0.53175 696.24908  1      859
siesta:      2.63900   0.13978 696.24908  2      860
siesta:      0.40557   2.60678 696.24908  2      861
siesta:     -0.59030  -0.53175 693.81889  1      862
siesta:     -2.63900  -0.13978 693.81889  2      863
siesta:     -0.40557  -2.60678 693.81889  2      864
siesta:      0.59030   0.53175 701.10946  1      865
siesta:      2.63900   0.13978 701.10946  2      866
siesta:      0.40557   2.60678 701.10946  2      867
siesta:     -0.59030  -0.53175 698.67927  1      868
siesta:     -2.63900  -0.13978 698.67927  2      869
siesta:     -0.40557  -2.60678 698.67927  2      870
siesta:      0.59030   0.53175 705.96984  1      871
siesta:      2.63900   0.13978 705.96984  2      872
siesta:      0.40557   2.60678 705.96984  2      873
siesta:     -0.59030  -0.53175 703.53965  1      874
siesta:     -2.63900  -0.13978 703.53965  2      875
siesta:     -0.40557  -2.60678 703.53965  2      876
siesta:      0.59030   0.53175 710.83021  1      877
siesta:      2.63900   0.13978 710.83021  2      878
siesta:      0.40557   2.60678 710.83021  2      879
siesta:     -0.59030  -0.53175 708.40002  1      880
siesta:     -2.63900  -0.13978 708.40002  2      881
siesta:     -0.40557  -2.60678 708.40002  2      882
siesta:      0.59030   0.53175 715.69059  1      883
siesta:      2.63900   0.13978 715.69059  2      884
siesta:      0.40557   2.60678 715.69059  2      885
siesta:     -0.59030  -0.53175 713.26040  1      886
siesta:     -2.63900  -0.13978 713.26040  2      887
siesta:     -0.40557  -2.60678 713.26040  2      888
siesta:      0.59030   0.53175 720.55097  1      889
siesta:      2.63900   0.13978 720.55097  2      890
siesta:      0.40557   2.60678 720.55097  2      891
siesta:     -0.59030  -0.53175 718.12078  1      892
siesta:     -2.63900  -0.13978 718.12078  2      893
siesta:     -0.40557  -2.60678 718.12078  2      894
siesta:      0.59030   0.53175 725.41135  1      895
siesta:      2.63900   0.13978 725.41135  2      896
siesta:      0.40557   2.60678 725.41135  2      897
siesta:     -0.59030  -0.53175 722.98116  1      898
siesta:     -2.63900  -0.13978 722.98116  2      899
siesta:     -0.40557  -2.60678 722.98116  2      900
siesta:      0.59030   0.53175 730.27172  1      901
siesta:      2.63900   0.13978 730.27172  2      902
siesta:      0.40557   2.60678 730.27172  2      903
siesta:     -0.59030  -0.53175 727.84154  1      904
siesta:     -2.63900  -0.13978 727.84154  2      905
siesta:     -0.40557  -2.60678 727.84154  2      906
siesta:      0.59030   0.53175 735.13210  1      907
siesta:      2.63900   0.13978 735.13210  2      908
siesta:      0.40557   2.60678 735.13210  2      909
siesta:     -0.59030  -0.53175 732.70191  1      910
siesta:     -2.63900  -0.13978 732.70191  2      911
siesta:     -0.40557  -2.60678 732.70191  2      912
siesta:      0.59030   0.53175 739.99248  1      913
siesta:      2.63900   0.13978 739.99248  2      914
siesta:      0.40557   2.60678 739.99248  2      915
siesta:     -0.59030  -0.53175 737.56229  1      916
siesta:     -2.63900  -0.13978 737.56229  2      917
siesta:     -0.40557  -2.60678 737.56229  2      918
siesta:      0.59030   0.53175 744.85286  1      919
siesta:      2.63900   0.13978 744.85286  2      920
siesta:      0.40557   2.60678 744.85286  2      921
siesta:     -0.59030  -0.53175 742.42267  1      922
siesta:     -2.63900  -0.13978 742.42267  2      923
siesta:     -0.40557  -2.60678 742.42267  2      924
siesta:      0.59030   0.53175 749.71323  1      925
siesta:      2.63900   0.13978 749.71323  2      926
siesta:      0.40557   2.60678 749.71323  2      927
siesta:     -0.59030  -0.53175 747.28305  1      928
siesta:     -2.63900  -0.13978 747.28305  2      929
siesta:     -0.40557  -2.60678 747.28305  2      930
siesta:      0.59030   0.53175 754.57361  1      931
siesta:      2.63900   0.13978 754.57361  2      932
siesta:      0.40557   2.60678 754.57361  2      933
siesta:     -0.59030  -0.53175 752.14342  1      934
siesta:     -2.63900  -0.13978 752.14342  2      935
siesta:     -0.40557  -2.60678 752.14342  2      936
siesta:      0.59030   0.53175 759.43399  1      937
siesta:      2.63900   0.13978 759.43399  2      938
siesta:      0.40557   2.60678 759.43399  2      939
siesta:     -0.59030  -0.53175 757.00380  1      940
siesta:     -2.63900  -0.13978 757.00380  2      941
siesta:     -0.40557  -2.60678 757.00380  2      942
siesta:      0.59030   0.53175 764.29437  1      943
siesta:      2.63900   0.13978 764.29437  2      944
siesta:      0.40557   2.60678 764.29437  2      945
siesta:     -0.59030  -0.53175 761.86418  1      946
siesta:     -2.63900  -0.13978 761.86418  2      947
siesta:     -0.40557  -2.60678 761.86418  2      948
siesta:      0.59030   0.53175 769.15474  1      949
siesta:      2.63900   0.13978 769.15474  2      950
siesta:      0.40557   2.60678 769.15474  2      951
siesta:     -0.59030  -0.53175 766.72456  1      952
siesta:     -2.63900  -0.13978 766.72456  2      953
siesta:     -0.40557  -2.60678 766.72456  2      954
siesta:      0.59030   0.53175 774.01512  1      955
siesta:      2.63900   0.13978 774.01512  2      956
siesta:      0.40557   2.60678 774.01512  2      957
siesta:     -0.59030  -0.53175 771.58493  1      958
siesta:     -2.63900  -0.13978 771.58493  2      959
siesta:     -0.40557  -2.60678 771.58493  2      960
siesta:      0.59030   0.53175 778.87550  1      961
siesta:      2.63900   0.13978 778.87550  2      962
siesta:      0.40557   2.60678 778.87550  2      963
siesta:     -0.59030  -0.53175 776.44531  1      964
siesta:     -2.63900  -0.13978 776.44531  2      965
siesta:     -0.40557  -2.60678 776.44531  2      966
siesta:      0.59030   0.53175 783.73588  1      967
siesta:      2.63900   0.13978 783.73588  2      968
siesta:      0.40557   2.60678 783.73588  2      969
siesta:     -0.59030  -0.53175 781.30569  1      970
siesta:     -2.63900  -0.13978 781.30569  2      971
siesta:     -0.40557  -2.60678 781.30569  2      972
siesta:      0.59030   0.53175 788.59625  1      973
siesta:      2.63900   0.13978 788.59625  2      974
siesta:      0.40557   2.60678 788.59625  2      975
siesta:     -0.59030  -0.53175 786.16607  1      976
siesta:     -2.63900  -0.13978 786.16607  2      977
siesta:     -0.40557  -2.60678 786.16607  2      978
siesta:      0.59030   0.53175 793.45663  1      979
siesta:      2.63900   0.13978 793.45663  2      980
siesta:      0.40557   2.60678 793.45663  2      981
siesta:     -0.59030  -0.53175 791.02644  1      982
siesta:     -2.63900  -0.13978 791.02644  2      983
siesta:     -0.40557  -2.60678 791.02644  2      984
siesta:      0.59030   0.53175 798.31701  1      985
siesta:      2.63900   0.13978 798.31701  2      986
siesta:      0.40557   2.60678 798.31701  2      987
siesta:     -0.59030  -0.53175 795.88682  1      988
siesta:     -2.63900  -0.13978 795.88682  2      989
siesta:     -0.40557  -2.60678 795.88682  2      990
siesta:      0.59030   0.53175 803.17739  1      991
siesta:      2.63900   0.13978 803.17739  2      992
siesta:      0.40557   2.60678 803.17739  2      993
siesta:     -0.59030  -0.53175 800.74720  1      994
siesta:     -2.63900  -0.13978 800.74720  2      995
siesta:     -0.40557  -2.60678 800.74720  2      996
siesta:      0.59030   0.53175 808.03776  1      997
siesta:      2.63900   0.13978 808.03776  2      998
siesta:      0.40557   2.60678 808.03776  2      999
siesta:     -0.59030  -0.53175 805.60758  1     1000
siesta:     -2.63900  -0.13978 805.60758  2     1001
siesta:     -0.40557  -2.60678 805.60758  2     1002
siesta:      0.59030   0.53175 812.89814  1     1003
siesta:      2.63900   0.13978 812.89814  2     1004
siesta:      0.40557   2.60678 812.89814  2     1005
siesta:     -0.59030  -0.53175 810.46795  1     1006
siesta:     -2.63900  -0.13978 810.46795  2     1007
siesta:     -0.40557  -2.60678 810.46795  2     1008
siesta:      0.59030   0.53175 817.75852  1     1009
siesta:      2.63900   0.13978 817.75852  2     1010
siesta:      0.40557   2.60678 817.75852  2     1011
siesta:     -0.59030  -0.53175 815.32833  1     1012
siesta:     -2.63900  -0.13978 815.32833  2     1013
siesta:     -0.40557  -2.60678 815.32833  2     1014
siesta:      0.59030   0.53175 822.61890  1     1015
siesta:      2.63900   0.13978 822.61890  2     1016
siesta:      0.40557   2.60678 822.61890  2     1017
siesta:     -0.59030  -0.53175 820.18871  1     1018
siesta:     -2.63900  -0.13978 820.18871  2     1019
siesta:     -0.40557  -2.60678 820.18871  2     1020
siesta:      0.59030   0.53175 827.47927  1     1021
siesta:      2.63900   0.13978 827.47927  2     1022
siesta:      0.40557   2.60678 827.47927  2     1023
siesta:     -0.59030  -0.53175 825.04909  1     1024
siesta:     -2.63900  -0.13978 825.04909  2     1025
siesta:     -0.40557  -2.60678 825.04909  2     1026
siesta:      0.59030   0.53175 832.33965  1     1027
siesta:      2.63900   0.13978 832.33965  2     1028
siesta:      0.40557   2.60678 832.33965  2     1029
siesta:     -0.59030  -0.53175 829.90946  1     1030
siesta:     -2.63900  -0.13978 829.90946  2     1031
siesta:     -0.40557  -2.60678 829.90946  2     1032
siesta:      0.59030   0.53175 837.20003  1     1033
siesta:      2.63900   0.13978 837.20003  2     1034
siesta:      0.40557   2.60678 837.20003  2     1035
siesta:     -0.59030  -0.53175 834.76984  1     1036
siesta:     -2.63900  -0.13978 834.76984  2     1037
siesta:     -0.40557  -2.60678 834.76984  2     1038
siesta:      0.59030   0.53175 842.06041  1     1039
siesta:      2.63900   0.13978 842.06041  2     1040
siesta:      0.40557   2.60678 842.06041  2     1041
siesta:     -0.59030  -0.53175 839.63022  1     1042
siesta:     -2.63900  -0.13978 839.63022  2     1043
siesta:     -0.40557  -2.60678 839.63022  2     1044
siesta:      0.59030   0.53175 846.92078  1     1045
siesta:      2.63900   0.13978 846.92078  2     1046
siesta:      0.40557   2.60678 846.92078  2     1047
siesta:     -0.59030  -0.53175 844.49060  1     1048
siesta:     -2.63900  -0.13978 844.49060  2     1049
siesta:     -0.40557  -2.60678 844.49060  2     1050
siesta:      0.59030   0.53175 851.78116  1     1051
siesta:      2.63900   0.13978 851.78116  2     1052
siesta:      0.40557   2.60678 851.78116  2     1053
siesta:     -0.59030  -0.53175 849.35097  1     1054
siesta:     -2.63900  -0.13978 849.35097  2     1055
siesta:     -0.40557  -2.60678 849.35097  2     1056
siesta:      0.59030   0.53175 856.64154  1     1057
siesta:      2.63900   0.13978 856.64154  2     1058
siesta:      0.40557   2.60678 856.64154  2     1059
siesta:     -0.59030  -0.53175 854.21135  1     1060
siesta:     -2.63900  -0.13978 854.21135  2     1061
siesta:     -0.40557  -2.60678 854.21135  2     1062
siesta:      0.59030   0.53175 861.50192  1     1063
siesta:      2.63900   0.13978 861.50192  2     1064
siesta:      0.40557   2.60678 861.50192  2     1065
siesta:     -0.59030  -0.53175 859.07173  1     1066
siesta:     -2.63900  -0.13978 859.07173  2     1067
siesta:     -0.40557  -2.60678 859.07173  2     1068
siesta:      0.59030   0.53175 866.36229  1     1069
siesta:      2.63900   0.13978 866.36229  2     1070
siesta:      0.40557   2.60678 866.36229  2     1071
siesta:     -0.59030  -0.53175 863.93211  1     1072
siesta:     -2.63900  -0.13978 863.93211  2     1073
siesta:     -0.40557  -2.60678 863.93211  2     1074
siesta:      0.59030   0.53175 871.22267  1     1075
siesta:      2.63900   0.13978 871.22267  2     1076
siesta:      0.40557   2.60678 871.22267  2     1077
siesta:     -0.59030  -0.53175 868.79248  1     1078
siesta:     -2.63900  -0.13978 868.79248  2     1079
siesta:     -0.40557  -2.60678 868.79248  2     1080
siesta:      0.59030   0.53175 876.08305  1     1081
siesta:      2.63900   0.13978 876.08305  2     1082
siesta:      0.40557   2.60678 876.08305  2     1083
siesta:     -0.59030  -0.53175 873.65286  1     1084
siesta:     -2.63900  -0.13978 873.65286  2     1085
siesta:     -0.40557  -2.60678 873.65286  2     1086
siesta:      0.59030   0.53175 880.94343  1     1087
siesta:      2.63900   0.13978 880.94343  2     1088
siesta:      0.40557   2.60678 880.94343  2     1089
siesta:     -0.59030  -0.53175 878.51324  1     1090
siesta:     -2.63900  -0.13978 878.51324  2     1091
siesta:     -0.40557  -2.60678 878.51324  2     1092
siesta:      0.59030   0.53175 885.80380  1     1093
siesta:      2.63900   0.13978 885.80380  2     1094
siesta:      0.40557   2.60678 885.80380  2     1095
siesta:     -0.59030  -0.53175 883.37362  1     1096
siesta:     -2.63900  -0.13978 883.37362  2     1097
siesta:     -0.40557  -2.60678 883.37362  2     1098
siesta:      0.59030   0.53175 890.66418  1     1099
siesta:      2.63900   0.13978 890.66418  2     1100
siesta:      0.40557   2.60678 890.66418  2     1101
siesta:     -0.59030  -0.53175 888.23399  1     1102
siesta:     -2.63900  -0.13978 888.23399  2     1103
siesta:     -0.40557  -2.60678 888.23399  2     1104
siesta:      0.59030   0.53175 895.52456  1     1105
siesta:      2.63900   0.13978 895.52456  2     1106
siesta:      0.40557   2.60678 895.52456  2     1107
siesta:     -0.59030  -0.53175 893.09437  1     1108
siesta:     -2.63900  -0.13978 893.09437  2     1109
siesta:     -0.40557  -2.60678 893.09437  2     1110
siesta:      0.59030   0.53175 900.38494  1     1111
siesta:      2.63900   0.13978 900.38494  2     1112
siesta:      0.40557   2.60678 900.38494  2     1113
siesta:     -0.59030  -0.53175 897.95475  1     1114
siesta:     -2.63900  -0.13978 897.95475  2     1115
siesta:     -0.40557  -2.60678 897.95475  2     1116
siesta:      0.59030   0.53175 905.24531  1     1117
siesta:      2.63900   0.13978 905.24531  2     1118
siesta:      0.40557   2.60678 905.24531  2     1119
siesta:     -0.59030  -0.53175 902.81513  1     1120
siesta:     -2.63900  -0.13978 902.81513  2     1121
siesta:     -0.40557  -2.60678 902.81513  2     1122
siesta:      0.59030   0.53175 910.10569  1     1123
siesta:      2.63900   0.13978 910.10569  2     1124
siesta:      0.40557   2.60678 910.10569  2     1125
siesta:     -0.59030  -0.53175 907.67550  1     1126
siesta:     -2.63900  -0.13978 907.67550  2     1127
siesta:     -0.40557  -2.60678 907.67550  2     1128
siesta:      0.59030   0.53175 914.96607  1     1129
siesta:      2.63900   0.13978 914.96607  2     1130
siesta:      0.40557   2.60678 914.96607  2     1131
siesta:     -0.59030  -0.53175 912.53588  1     1132
siesta:     -2.63900  -0.13978 912.53588  2     1133
siesta:     -0.40557  -2.60678 912.53588  2     1134
siesta:      0.59030   0.53175 919.82645  1     1135
siesta:      2.63900   0.13978 919.82645  2     1136
siesta:      0.40557   2.60678 919.82645  2     1137
siesta:     -0.59030  -0.53175 917.39626  1     1138
siesta:     -2.63900  -0.13978 917.39626  2     1139
siesta:     -0.40557  -2.60678 917.39626  2     1140
siesta:      0.59030   0.53175 924.68683  1     1141
siesta:      2.63900   0.13978 924.68683  2     1142
siesta:      0.40557   2.60678 924.68683  2     1143
siesta:     -0.59030  -0.53175 922.25664  1     1144
siesta:     -2.63900  -0.13978 922.25664  2     1145
siesta:     -0.40557  -2.60678 922.25664  2     1146
siesta:      0.59030   0.53175 929.54720  1     1147
siesta:      2.63900   0.13978 929.54720  2     1148
siesta:      0.40557   2.60678 929.54720  2     1149
siesta:     -0.59030  -0.53175 927.11701  1     1150
siesta:     -2.63900  -0.13978 927.11701  2     1151
siesta:     -0.40557  -2.60678 927.11701  2     1152
siesta:      0.59030   0.53175 934.40758  1     1153
siesta:      2.63900   0.13978 934.40758  2     1154
siesta:      0.40557   2.60678 934.40758  2     1155
siesta:     -0.59030  -0.53175 931.97739  1     1156
siesta:     -2.63900  -0.13978 931.97739  2     1157
siesta:     -0.40557  -2.60678 931.97739  2     1158
siesta:      0.59030   0.53175 939.26796  1     1159
siesta:      2.63900   0.13978 939.26796  2     1160
siesta:      0.40557   2.60678 939.26796  2     1161
siesta:     -0.59030  -0.53175 936.83777  1     1162
siesta:     -2.63900  -0.13978 936.83777  2     1163
siesta:     -0.40557  -2.60678 936.83777  2     1164
siesta:      0.59030   0.53175 944.12834  1     1165
siesta:      2.63900   0.13978 944.12834  2     1166
siesta:      0.40557   2.60678 944.12834  2     1167
siesta:     -0.59030  -0.53175 941.69815  1     1168
siesta:     -2.63900  -0.13978 941.69815  2     1169
siesta:     -0.40557  -2.60678 941.69815  2     1170
siesta:      0.59030   0.53175 948.98871  1     1171
siesta:      2.63900   0.13978 948.98871  2     1172
siesta:      0.40557   2.60678 948.98871  2     1173
siesta:     -0.59030  -0.53175 946.55852  1     1174
siesta:     -2.63900  -0.13978 946.55852  2     1175
siesta:     -0.40557  -2.60678 946.55852  2     1176
siesta:      0.59030   0.53175 953.84909  1     1177
siesta:      2.63900   0.13978 953.84909  2     1178
siesta:      0.40557   2.60678 953.84909  2     1179
siesta:     -0.59030  -0.53175 951.41890  1     1180
siesta:     -2.63900  -0.13978 951.41890  2     1181
siesta:     -0.40557  -2.60678 951.41890  2     1182
siesta:      0.59030   0.53175 958.70947  1     1183
siesta:      2.63900   0.13978 958.70947  2     1184
siesta:      0.40557   2.60678 958.70947  2     1185
siesta:     -0.59030  -0.53175 956.27928  1     1186
siesta:     -2.63900  -0.13978 956.27928  2     1187
siesta:     -0.40557  -2.60678 956.27928  2     1188
siesta:      0.59030   0.53175 963.56985  1     1189
siesta:      2.63900   0.13978 963.56985  2     1190
siesta:      0.40557   2.60678 963.56985  2     1191
siesta:     -0.59030  -0.53175 961.13966  1     1192
siesta:     -2.63900  -0.13978 961.13966  2     1193
siesta:     -0.40557  -2.60678 961.13966  2     1194
siesta:      0.59030   0.53175 968.43022  1     1195
siesta:      2.63900   0.13978 968.43022  2     1196
siesta:      0.40557   2.60678 968.43022  2     1197
siesta:     -0.59030  -0.53175 966.00003  1     1198
siesta:     -2.63900  -0.13978 966.00003  2     1199
siesta:     -0.40557  -2.60678 966.00003  2     1200
siesta:      0.59030   0.53175 973.29060  1     1201
siesta:      2.63900   0.13978 973.29060  2     1202
siesta:      0.40557   2.60678 973.29060  2     1203
siesta:     -0.59030  -0.53175 970.86041  1     1204
siesta:     -2.63900  -0.13978 970.86041  2     1205
siesta:     -0.40557  -2.60678 970.86041  2     1206
siesta:      0.59030   0.53175 978.15098  1     1207
siesta:      2.63900   0.13978 978.15098  2     1208
siesta:      0.40557   2.60678 978.15098  2     1209
siesta:     -0.59030  -0.53175 975.72079  1     1210
siesta:     -2.63900  -0.13978 975.72079  2     1211
siesta:     -0.40557  -2.60678 975.72079  2     1212
siesta:      0.59030   0.53175 983.01136  1     1213
siesta:      2.63900   0.13978 983.01136  2     1214
siesta:      0.40557   2.60678 983.01136  2     1215
siesta:     -0.59030  -0.53175 980.58117  1     1216
siesta:     -2.63900  -0.13978 980.58117  2     1217
siesta:     -0.40557  -2.60678 980.58117  2     1218
siesta:      0.59030   0.53175 987.87173  1     1219
siesta:      2.63900   0.13978 987.87173  2     1220
siesta:      0.40557   2.60678 987.87173  2     1221
siesta:     -0.59030  -0.53175 985.44154  1     1222
siesta:     -2.63900  -0.13978 985.44154  2     1223
siesta:     -0.40557  -2.60678 985.44154  2     1224
siesta:      0.59030   0.53175 992.73211  1     1225
siesta:      2.63900   0.13978 992.73211  2     1226
siesta:      0.40557   2.60678 992.73211  2     1227
siesta:     -0.59030  -0.53175 990.30192  1     1228
siesta:     -2.63900  -0.13978 990.30192  2     1229
siesta:     -0.40557  -2.60678 990.30192  2     1230
siesta:      0.59030   0.53175 997.59249  1     1231
siesta:      2.63900   0.13978 997.59249  2     1232
siesta:      0.40557   2.60678 997.59249  2     1233
siesta:     -0.59030  -0.53175 995.16230  1     1234
siesta:     -2.63900  -0.13978 995.16230  2     1235
siesta:     -0.40557  -2.60678 995.16230  2     1236
siesta:      0.59030   0.531751002.45287  1     1237
siesta:      2.63900   0.139781002.45287  2     1238
siesta:      0.40557   2.606781002.45287  2     1239
siesta:     -0.59030  -0.531751000.02268  1     1240
siesta:     -2.63900  -0.139781000.02268  2     1241
siesta:     -0.40557  -2.606781000.02268  2     1242
siesta:      0.59030   0.531751007.31324  1     1243
siesta:      2.63900   0.139781007.31324  2     1244
[...]
        1670      39:   64   13:   64  657:  672
        1671       1:   11    1:   12  923:  937
        1672       1:   38   13:   64  892:  906
        1673       1:   38   13:   64 1017: 1031
        1674      12:   64    1:   12 2298: 2312
        1675       1:   11    1:   12 1001: 1015
        1676      39:   64   13:   64 1407: 1422
        1677      12:   64    1:   12 2204: 2218
        1678       1:   38   13:   64 1642: 1656
        1679       1:   11    1:   12 1298: 1312
        1680      39:   64   13:   64 1876: 1891
        1681      12:   64    1:   12 1954: 1968
        1682       1:   38   13:   64 2157: 2171
        1683       1:   11    1:   12 1251: 1265
        1684      39:   64   13:   64 2376: 2391
        1685       1:   38   13:   64 2517: 2531
        1686      39:   64   13:   64 2626: 2641
        1687      12:   64    1:   12 3501: 3515
        1688       1:   11    1:   12 1329: 1343
        1689       1:   38   13:   64 3017: 3031
        1690      39:   64   13:   64 3126: 3141
        1691      12:   64    1:   12 6204: 6218
        1692       1:   11    1:   12 1173: 1187
        1693      12:   64    1:   12 2923: 2937
        1694       1:   11    1:   12 1204: 1218
        1695       1:   38   13:   64 3782: 3796
        1696      39:   64   13:   64 3907: 3922
        1697      12:   64    1:   12 3751: 3765
        1698       1:   38   13:   64 4157: 4171
        1699       1:   11    1:   12 6126: 6140
        1700      39:   64   13:   64 4407: 4422
        1701      12:   64    1:   12 7626: 7640
        1702      39:   64   13:   64 4657: 4672
        1703       1:   11    1:   12 6079: 6093
        1704       1:   38   13:   64 4892: 4906
        1705      12:   64    1:   12 6579: 6593
        1706      39:   64   13:   64 5126: 5141
        1707       1:   11    1:   12 6173: 6187
        1708       1:   38   13:   64 5392: 5406
        1709       1:   38   13:   64 5517: 5531
        1710      39:   64   13:   64 5657: 5672
        1711      12:   64    1:   12 6126: 6140
        1712       1:   11    1:   12 6001: 6015
        1713      39:   64   13:   64 6032: 6047
        1714      12:   64    1:   12  579:  593
        1715       1:   38   13:   64 6267: 6281
        1716       1:   11    1:   12 5954: 5968
        1717      39:   64   13:   64 6532: 6547
        1718      12:   64    1:   12 1829: 1843
        1719       1:   11    1:   12 6048: 6062
        1720       1:   38   13:   64 6907: 6921
        1721      12:   64    1:   12 6173: 6187
        1722       1:   38   13:   64 7157: 7171
        1723       1:   11    1:   12 6329: 6343
        1724      39:   64   13:   64 7376: 7391
        1725      12:   64    1:   12 5251: 5265
        1726      39:   64   13:   64 7626: 7641
        1727       1:   38   13:   64 7782: 7796
        1728       1:   11    1:   12 6298: 6312
        1729       1:   38   13:   64   17:   31
        1730      39:   64   13:   64  126:  141
        1731      12:   64    1:   12 5001: 5015
        1732       1:   11    1:   12 6376: 6390
        1733      12:   64    1:   12 7579: 7593
        1734      39:   64   13:   64  626:  641
        1735       1:   11    1:   12 6204: 6218
        1736       1:   38   13:   64  907:  921
        1737       1:   38   13:   64 1032: 1046
        1738      39:   64   13:   64 1126: 1141
        1739      12:   64    1:   12 5079: 5093
        1740       1:   11    1:   12 6251: 6265
        1741       1:   38   13:   64 1532: 1546
        1742      39:   64   13:   64 1626: 1641
        1743      12:   64    1:   12 2548: 2562
        1744       1:   11    1:   12 5673: 5687
        1745      12:   64    1:   12 7048: 7062
        1746       1:   38   13:   64 2142: 2156
        1747       1:   11    1:   12 5626: 5640
        1748      39:   64   13:   64 2407: 2422
        1749      12:   64    1:   12  954:  968
        1750       1:   38   13:   64 2657: 2671
        1751      39:   64   13:   64 2782: 2797
        1752       1:   11    1:   12 5704: 5718
        1753       1:   38   13:   64 3032: 3046
        1754      39:   64   13:   64 3157: 3172
        1755      12:   64    1:   12 7001: 7015
        1756       1:   11    1:   12 5548: 5562
        1757      12:   64    1:   12 2829: 2843
        1758       1:   11    1:   12 5501: 5515
        1759      39:   64   13:   64 3782: 3797
        1760       1:   38   13:   64 3892: 3906
        1761      12:   64    1:   12 3173: 3187
        1762       1:   38   13:   64 4142: 4156
        1763       1:   11    1:   12 5579: 5593
        1764      39:   64   13:   64 4376: 4391
        1765      12:   64    1:   12 5298: 5312
        1766      39:   64   13:   64 4626: 4641
        1767       1:   11    1:   12 5876: 5890
        1768       1:   38   13:   64 4907: 4921
        1769      12:   64    1:   12 1579: 1593
        1770      39:   64   13:   64 5157: 5172
        1771       1:   11    1:   12 5829: 5843
        1772       1:   38   13:   64 5407: 5421
        1773      12:   64    1:   12 7548: 7562
        1774       1:   38   13:   64 5657: 5671
        1775      39:   64   13:   64 5782: 5797
        1776       1:   11    1:   12 5923: 5937
        1777      39:   64   13:   64 6001: 6016
        1778       1:   38   13:   64 6157: 6171
        1779      12:   64    1:   12 1454: 1468
        1780       1:   11    1:   12 5751: 5765
        1781      12:   64    1:   12 5548: 5562
        1782      39:   64   13:   64 6626: 6641
        1783       1:   11    1:   12 5798: 5812
        1784       1:   38   13:   64 6892: 6906
        1785      12:   64    1:   12  923:  937
        1786       1:   38   13:   64 7142: 7156
        1787      39:   64   13:   64 7251: 7266
        1788       1:   11    1:   12 7048: 7062
        1789      39:   64   13:   64 7532: 7547
        1790      12:   64    1:   12 4204: 4218
        1791       1:   38   13:   64 7767: 7781
        1792       1:   11    1:   12 7001: 7015
        1793      39:   64   13:   64    1:   16
        1794       1:   38   13:   64  157:  171
        1795      12:   64    1:   12 4423: 4437
        1796       1:   11    1:   12 7079: 7093
        1797       1:   38   13:   64  517:  531
        1798      39:   64   13:   64  642:  656
        1799      12:   64    1:   12 4376: 4390
        1800       1:   11    1:   12 6923: 6937
        1801      12:   64    1:   12 5501: 5515
        1802       1:   38   13:   64 1142: 1156
        1803      39:   64   13:   64 1282: 1297
        1804       1:   11    1:   12 6876: 6890
        1805       1:   38   13:   64 1517: 1531
        1806      12:   64    1:   12 3126: 3140
        1807      39:   64   13:   64 1751: 1766
        1808       1:   11    1:   12 6954: 6968
        1809       1:   38   13:   64 2032: 2046
        1810      39:   64   13:   64 2157: 2172
        1811      12:   64    1:   12 1079: 1093
        1812       1:   11    1:   12 7251: 7265
        1813      39:   64   13:   64 2501: 2516
        1814      12:   64    1:   12 6923: 6937
        1815       1:   38   13:   64 2782: 2796
        1816       1:   11    1:   12 7204: 7218
        1817      39:   64   13:   64 3032: 3047
        1818      12:   64    1:   12 7704: 7718
        1819       1:   38   13:   64 3282: 3296
        1820       1:   11    1:   12 7298: 7312
        1821      12:   64    1:   12 5376: 5390
        1822       1:   38   13:   64 3657: 3671
        1823      39:   64   13:   64 3751: 3766
        1824       1:   11    1:   12 7126: 7140
        1825      12:   64    1:   12 1548: 1562
        1826      39:   64   13:   64 4126: 4141
        1827       1:   38   13:   64 4282: 4296
        1828       1:   11    1:   12 7173: 7187
        1829      12:   64    1:   12 7126: 7140
        1830       1:   38   13:   64 4657: 4671
        1831      39:   64   13:   64 4782: 4797
        1832       1:   11    1:   12 6579: 6593
        1833       1:   38   13:   64 5032: 5046
        1834      12:   64    1:   12 5423: 5437
        1835      39:   64   13:   64 5267: 5281
        1836       1:   11    1:   12 6548: 6562
        1837      12:   64    1:   12 7923: 7937
        1838       1:   38   13:   64 5642: 5656
        1839      39:   64   13:   64 5751: 5766
        1840       1:   11    1:   12 6626: 6640
        1841      12:   64    1:   12 5329: 5343
        1842      39:   64   13:   64 6157: 6172
        1843       1:   11    1:   12 6454: 6468
        1844       1:   38   13:   64 6407: 6421
        1845      12:   64    1:   12 4329: 4343
        1846       1:   11    1:   12 6423: 6437
        1847       1:   38   13:   64 6767: 6781
        1848      39:   64   13:   64 6907: 6922
        1849      12:   64    1:   12  126:  140
        1850      39:   64   13:   64 7126: 7141
        1851       1:   38   13:   64 7267: 7281
        1852       1:   11    1:   12 6501: 6515
        1853      39:   64   13:   64 7501: 7516
        1854       1:   38   13:   64 7657: 7671
        1855      12:   64    1:   12 1001: 1015
        1856       1:   11    1:   12 6798: 6812
        1857      39:   64   13:   64   32:   47
        1858       1:   38   13:   64  142:  156
        1859      12:   64    1:   12 1048: 1062
        1860       1:   11    1:   12 6751: 6765
        1861       1:   38   13:   64  532:  546
        1862      39:   64   13:   64  673:  687
        1863      12:   64    1:   12  173:  187
        1864       1:   11    1:   12 6829: 6843
        1865      12:   64    1:   12 2704: 2718
        1866       1:   38   13:   64 1157: 1171
        1867       1:   11    1:   12 6673: 6687
        1868      39:   64   13:   64 1423: 1437
        1869      12:   64    1:   12 5048: 5062
        1870      39:   64   13:   64 1673: 1687
        1871       1:   38   13:   64 1782: 1796
        1872       1:   11    1:   12 6704: 6718
        1873      12:   64    1:   12 5454: 5468
        1874      39:   64   13:   64 2126: 2141
        1875       1:   11    1:   12 4298: 4312
        1876       1:   38   13:   64 2392: 2406
        1877      12:   64    1:   12 6954: 6968
        1878      39:   64   13:   64 2673: 2687
        1879       1:   38   13:   64 2767: 2781
        1880       1:   11    1:   12 4251: 4265
        1881      39:   64   13:   64 3001: 3016
        1882      12:   64    1:   12 4548: 4562
        1883       1:   38   13:   64 3267: 3281
        1884       1:   11    1:   12 4329: 4343
        1885      12:   64    1:   12 2126: 2140
        1886       1:   38   13:   64 3642: 3656
        1887       1:   11    1:   12 4173: 4187
        1888      39:   64   13:   64 3892: 3906
        1889      12:   64    1:   12 1501: 1515
        1890      39:   64   13:   64 4157: 4172
        1891       1:   38   13:   64 4267: 4281
        1892       1:   11    1:   12 4126: 4140
        1893      12:   64    1:   12 7173: 7187
        1894       1:   11    1:   12 4204: 4218
        1895       1:   38   13:   64 4767: 4781
        1896      39:   64   13:   64 4876: 4891
        1897       1:   38   13:   64 5017: 5031
        1898      39:   64   13:   64 5173: 5187
        1899      12:   64    1:   12 3204: 3218
        1900       1:   11    1:   12 4501: 4515
        1901       1:   38   13:   64 5532: 5546
        1902      39:   64   13:   64 5626: 5641
        1903      12:   64    1:   12 4298: 4312
        1904       1:   11    1:   12 4454: 4468
        1905      12:   64    1:   12 4251: 4265
        1906      39:   64   13:   64 6126: 6141
        1907       1:   38   13:   64 6282: 6296
        1908       1:   11    1:   12 4548: 4562
        1909      12:   64    1:   12 4501: 4515
        1910       1:   11    1:   12 4376: 4390
        1911       1:   38   13:   64 6782: 6796
        1912      39:   64   13:   64 6876: 6891
        1913       1:   38   13:   64 7032: 7046
        1914      39:   64   13:   64 7157: 7172
        1915      12:   64    1:   12 5626: 5640
        1916       1:   11    1:   12 4423: 4437
        1917      12:   64    1:   12 3298: 3312
        1918       1:   38   13:   64 7642: 7656
        1919      39:   64   13:   64 7751: 7766
        1920       1:   11    1:   12 3829: 3843
        1921      12:   64    1:   12 1126: 1140
        1922      39:   64   13:   64  142:  156
        1923       1:   38   13:   64  282:  296
        1924       1:   11    1:   12 3798: 3812
        1925      39:   64   13:   64  532:  547
        1926      12:   64    1:   12 3079: 3093
        1927       1:   38   13:   64  782:  796
        1928       1:   11    1:   12 3876: 3890
        1929      12:   64    1:   12 4579: 4593
        1930      39:   64   13:   64 1157: 1172
        1931       1:   38   13:   64 1282: 1296
        1932       1:   11    1:   12 3704: 3718
        1933      12:   64    1:   12  829:  843
        1934      39:   64   13:   64 1642: 1656
        1935       1:   38   13:   64 1767: 1781
        1936       1:   11    1:   12 3673: 3687
        1937      12:   64    1:   12 5673: 5687
        1938       1:   11    1:   12 3751: 3765
        1939      39:   64   13:   64 2267: 2281
        1940       1:   38   13:   64 2407: 2421
        1941      12:   64    1:   12 3251: 3265
        1942       1:   38   13:   64 2642: 2656
        1943      39:   64   13:   64 2751: 2766
        1944       1:   11    1:   12 4048: 4062
        1945      12:   64    1:   12 4173: 4187
        1946       1:   38   13:   64 3142: 3156
        1947      39:   64   13:   64 3298: 3312
        1948       1:   11    1:   12 4001: 4015
        1949      12:   64    1:   12  876:  890
        1950      39:   64   13:   64 3657: 3672
        1951       1:   38   13:   64 3767: 3781
        1952       1:   11    1:   12 4079: 4093
        1953       1:   38   13:   64 4017: 4031
        1954      12:   64    1:   12 4126: 4140
        1955       1:   11    1:   12 3923: 3937
        1956      39:   64   13:   64 4392: 4406
        1957      12:   64    1:   12 1626: 1640
        1958       1:   38   13:   64 4642: 4656
        1959      39:   64   13:   64 4798: 4812
        1960       1:   11    1:   12 3954: 3968
        1961      39:   64   13:   64 5001: 5016
        1962      12:   64    1:   12 1204: 1218
        1963       1:   38   13:   64 5267: 5281
        1964       1:   11    1:   12 5204: 5218
        1965      12:   64    1:   12 4454: 4468
        1966       1:   11    1:   12 5173: 5187
        1967       1:   38   13:   64 5767: 5781
        1968      39:   64   13:   64 5923: 5937
        1969      39:   64   13:   64 6048: 6062
        1970      12:   64    1:   12 5126: 5140
        1971       1:   11    1:   12 5251: 5265
        1972       1:   38   13:   64 6392: 6406
        1973       1:   38   13:   64 6532: 6546
        1974      39:   64   13:   64 6642: 6656
        1975      12:   64    1:   12 6829: 6843
        1976       1:   11    1:   12 5079: 5093
        1977       1:   38   13:   64 7017: 7031
        1978      12:   64    1:   12 1673: 1687
        1979       1:   11    1:   12 5048: 5062
        1980      39:   64   13:   64 7392: 7406
        1981      39:   64   13:   64 7517: 7531
        1982      12:   64    1:   12 2173: 2187
        1983       1:   11    1:   12 5126: 5140
        1984       1:   38   13:   64 7907: 7921
        1985      39:   64   13:   64   48:   62
        1986      12:   64    1:   12 2501: 2515
        1987       1:   38   13:   64  267:  281
        1988       1:   11    1:   12 5423: 5437
        1989      39:   64   13:   64  501:  516
        1990      12:   64    1:   12 7501: 7515
        1991       1:   38   13:   64  767:  781
        1992       1:   11    1:   12 5376: 5390
        1993      12:   64    1:   12 4954: 4968
        1994      39:   64   13:   64 1142: 1156
        1995       1:   38   13:   64 1267: 1281
        1996       1:   11    1:   12 5454: 5468
        1997      12:   64    1:   12 2376: 2390
        1998       1:   38   13:   64 1657: 1671
        1999      39:   64   13:   64 1782: 1797
        2000       1:   11    1:   12 5298: 5312
        2001      12:   64    1:   12 7079: 7093
        2002       1:   11    1:   12 5329: 5343
        2003       1:   38   13:   64 2267: 2281
        2004      39:   64   13:   64 2392: 2406
        2005      12:   64    1:   12 7876: 7890
        2006       1:   11    1:   12 4751: 4765
        2007      39:   64   13:   64 2798: 2812
        2008       1:   38   13:   64 2892: 2906
        2009      12:   64    1:   12 5173: 5187
        2010       1:   38   13:   64 3157: 3171
        2011      39:   64   13:   64 3267: 3281
        2012       1:   11    1:   12 4704: 4718
        2013      12:   64    1:   12   79:   93
        2014       1:   11    1:   12 4798: 4812
        2015      39:   64   13:   64 3798: 3812
        2016       1:   38   13:   64 3907: 3921
        2017       1:   38   13:   64 4032: 4046
        2018      12:   64    1:   12 2079: 2093
        2019       1:   11    1:   12 4626: 4640
        2020      39:   64   13:   64 4423: 4437
        2021      12:   64    1:   12 5204: 5218
        2022      39:   64   13:   64 4642: 4656
        2023       1:   38   13:   64 4782: 4796
        2024       1:   11    1:   12 4579: 4593
        2025      39:   64   13:   64 5032: 5047
        2026       1:   38   13:   64 5157: 5171
        2027      12:   64    1:   12 5579: 5593
        2028       1:   11    1:   12 4673: 4687
        2029      12:   64    1:   12 7798: 7812
        2030       1:   11    1:   12 4954: 4968
        2031      39:   64   13:   64 5798: 5812
        2032       1:   38   13:   64 5892: 5906
        2033       1:   38   13:   64 6032: 6046
        2034      12:   64    1:   12  204:  218
        2035       1:   11    1:   12 4923: 4937
        2036      39:   64   13:   64 6423: 6437
        2037       1:   38   13:   64 6517: 6531
        2038      12:   64    1:   12 1173: 1187
        2039       1:   11    1:   12 5001: 5015
        2040      39:   64   13:   64 6923: 6937
        2041      12:   64    1:   12 7329: 7343
        2042       1:   11    1:   12 4829: 4843
        2043       1:   38   13:   64 7282: 7296
        2044      39:   64   13:   64 7423: 7437
        2045      39:   64   13:   64 7548: 7562
        2046      12:   64    1:   12 6876: 6890
        2047       1:   11    1:   12 4876: 4890
        2048       1:   38   13:   64 7892: 7906
Setting up quadratic distribution...
ExtMesh (bp) on 0 =    93 x    93 x    47 =      406503
PhiOnMesh: Number of (b)points on node 0 =                48735
PhiOnMesh: nlist on node 0 =                53538

stepf: Fermi-Dirac step function

siesta: Program's energy decomposition (eV):
siesta: Ebs     =   -175565.012154
siesta: Eions   =    600240.276267
siesta: Ena     =    128821.769696
siesta: Ekin    =    242231.472040
siesta: Enl     =    -17244.328472
siesta: DEna    =         0.000289
siesta: DUscf   =         0.000000
siesta: DUext   =         0.000000
siesta: Exc     =   -128527.411444
siesta: eta*DQ  =         0.000000
siesta: Emadel  =         0.000000
siesta: Emeta   =         0.000000
siesta: Emolmec =         0.000000
siesta: Ekinion =         0.000000
siesta: Eharris =   -383923.129373
siesta: Etot    =   -374958.774158
siesta: FreeEng =   -374958.774158

   scf: iscf   Eharris(eV)      E_KS(eV)   FreeEng(eV)    dDmax  Ef(eV)
   scf:    1  -383923.1294  -374958.7742  -374958.7742  1.90563 -9.1696
timer: Routine,Calls,Time,% =    IterSCF     1     976.800  90.99
   scf:    2  -383644.3911  -381839.4968  -381839.4968  0.25502 -2.9259
   scf:    3  -382700.5095  -381563.2296  -381563.2296  0.18808 -5.4401
   scf:    4  -382663.7355  -382420.0409  -382420.0409  0.01857 -6.0312
   scf:    5  -382662.0558  -382555.1886  -382555.1886  0.00873 -6.0307
