s.subSiesta: Submission time = 07s09m17h
s.subSiesta: Job name = qp64_s32_n8_c16_vesta
s.subSiesta: Number of nodes = 8
s.subSiesta: Number of cores = 128
s.subSiesta: Number of cores/node = 16
s.subSiesta: Number of slices = 32
s.subSiesta: Mapping = ABCDET
07s09m17h
#QETSc options
-ioptbin 7
-ioptdensity 0
-ioptinertia 1
-ioptleft 2
-roptbuffer 0.01
-roptdiff 0.02
-writeeigs 1

#PETSc options
-mat_type mpisbaij
-log_view
#-mat_view
#-memory_view
#-mat_mumps_icntl_13 1 #turn off scaLAPACK for matrix inertia
#-mat_mumps_icntl_24 1 #null pivot row detection for matrix inertia
-mat_mumps_icntl_23 0
#-mat_mumps_icntl_28 1 # serial analysis
#-mat_mumps_icntl_28 2 #parallel analysis
#-mat_mumps_icntl_29 1 #ptscotch
#-mat_mumps_icntl_29 2 #parmetis
-mat_mumps_icntl_7 5 #metis
#-malloc_info 
#-mat_view ::ascii_info 
#-mat_getrow_uppertriangular 1
#-st_type sinvert 
#-st_ksp_type preonly 
#-st_pc_type cholesky 
#-st_pc_factor_mat_solver_package mumps 

#SLEPc options

#-eps_krylovschur_partitions 1  
-eps_interval -2.3,0.
#-eps_tol  1.e-8
-eps_krylovschur_detect_zeros 0
#-eps_purify 1
SystemName          polyethylene
SystemLabel         polyethylene
NumberOfAtoms       6
NumberOfSpecies     2

%block ChemicalSpeciesLabel
 1  6  C
 2  1  H
%endblock ChemicalSpeciesLabel

DM.MixingWeight 0.3
DM.NumberPulay 3
#BlockSize 23
SolutionMethod  slepc1
WriteDM .false.
WriteDM.NetCDF .false.
WriteDMHS.NetCDF .false.
LongOutput .false.
#MaxSCFIterations 1

PAO.BasisType split
PAO.BasisSize DZP

LatticeConstant 1.00 Ang
%block LatticeVectors
20.000  0.000  0.000
 0.000 20.000  0.000
 0.000  0.000  2.572
%endblock LatticeVectors

%block kgrid_Monkhorst_Pack
1 0 0 0.0
0 1 0 0.0
0 0 1 0.0
%endblock kgrid_Monkhorst_Pack

%block SuperCell
1 0 0
0 1 0
0 0 64
%endblock SuperCell

AtomicCoordinatesFormat Ang
%block AtomicCoordinatesAndAtomicSpecies
  0.31237500000000001       0.28138740000000001       0.64300000000000002     1
   1.3964999999999999        7.3970400000000006E-002  0.64300000000000002     2
  0.21462000000000001        1.3794480000000002       0.64300000000000002     2
 -0.31237500000000001      -0.28138740000000001      -0.64300000000000002     1
  -1.3964999999999999       -7.3970400000000006E-002 -0.64300000000000002     2
 -0.21462000000000001       -1.3794480000000002      -0.64300000000000002     2
%endblock AtomicCoordinatesAndAtomicSpecies
Siesta Version: siesta-trunk-492
Architecture  : powerpc64-unknown-linux-gnu--Xlf
Compiler flags: mpixlf90_r -I/home/keceli/scratch2/petsc/include -I/home/keceli/scratch2/petssc/arch-xl/include -I/bgsys/drivers/V1R2M4/ppc64/comm/include -I/bgsys/drivers/V1R2M4/ppc64/comm/lib/xl -I/bgsys/drivers/V1R2M4/ppc64 -I/bgsys/drivers/V1R2M4/ppc64/comm/sys/include -I/bgsys/drivers/V1R2M4/ppc64/spi/include -I/bgsys/drivers/V1R2M4/ppc64/spi/include/kernel/cnk -I/home/keceli/scratch2/slepcfork/include -I/home/keceli/scratch2/slepcfork/arch-xl/include
PP flags      : -WF,-DMPI -WF,-DFC_HAVE_ABORT -WF,-DBSC_CELLXC -WF,-DMPI_TIMING 
PARALLEL version

* Running on  128 nodes in parallel
>> Start of run:   8-DEC-2016  17:10:20

                           ***********************       
                           *  WELCOME TO SIESTA  *       
                           ***********************       
WARNING: Siesta is reading its input from file INPUT_DEBUG

reinit: -----------------------------------------------------------------------
reinit: System Name: polyethylene
reinit: -----------------------------------------------------------------------
reinit: System Label: polyethylene                                                
reinit: -----------------------------------------------------------------------

initatom: Reading input for the pseudopotentials and atomic orbitals ----------
Species number:   1 Atomic number:    6 Label: C
Species number:   2 Atomic number:    1 Label: H
 
Ground state valence configuration:   2s02  2p02
Reading pseudopotential information in formatted form from C.psf

Valence configuration for pseudopotential generation:
2s( 2.00) rc: 1.54
2p( 2.00) rc: 1.54
3d( 0.00) rc: 1.54
4f( 0.00) rc: 1.54
Ground state valence configuration:   1s01
Reading pseudopotential information in formatted form from H.psf

Valence configuration for pseudopotential generation:
1s( 1.00) rc: 1.31
2p( 0.00) rc: 1.31
3d( 0.00) rc: 0.37
4f( 0.00) rc: 1.31
For C, standard SIESTA heuristics set lmxkb to 3
 (one more than the basis l, including polarization orbitals).
Use PS.lmax or PS.KBprojectors blocks to override.
For H, standard SIESTA heuristics set lmxkb to 2
 (one more than the basis l, including polarization orbitals).
Use PS.lmax or PS.KBprojectors blocks to override.

<basis_specs>
===============================================================================
C                    Z=   6    Mass=  12.010        Charge= 0.17977+309
Lmxo=1 Lmxkb= 3    BasisType=split      Semic=F
L=0  Nsemic=0  Cnfigmx=2
          n=1  nzeta=2  polorb=0
            splnorm:   0.15000    
               vcte:    0.0000    
               rinn:    0.0000    
               qcoe:    0.0000    
               qyuk:    0.0000    
               qwid:   0.10000E-01
                rcs:    0.0000      0.0000    
            lambdas:    1.0000      1.0000    
L=1  Nsemic=0  Cnfigmx=2
          n=1  nzeta=2  polorb=1
            splnorm:   0.15000    
               vcte:    0.0000    
               rinn:    0.0000    
               qcoe:    0.0000    
               qyuk:    0.0000    
               qwid:   0.10000E-01
                rcs:    0.0000      0.0000    
            lambdas:    1.0000      1.0000    
-------------------------------------------------------------------------------
L=0  Nkbl=1  erefs: 0.17977+309
L=1  Nkbl=1  erefs: 0.17977+309
L=2  Nkbl=1  erefs: 0.17977+309
L=3  Nkbl=1  erefs: 0.17977+309
===============================================================================
</basis_specs>

atom: Called for C                     (Z =   6)

read_vps: Pseudopotential generation method:
read_vps: ATM3      Troullier-Martins                       
Total valence charge:    4.00000

xc_check: Exchange-correlation functional:
xc_check: Ceperley-Alder
V l=0 = -2*Zval/r beyond r=  1.5227
V l=1 = -2*Zval/r beyond r=  1.5227
V l=2 = -2*Zval/r beyond r=  1.5227
V l=3 = -2*Zval/r beyond r=  1.5038
All V_l potentials equal beyond r=  1.5227
This should be close to max(r_c) in ps generation
All pots = -2*Zval/r beyond r=  1.5227

VLOCAL1: 99.0% of the norm of Vloc inside     18.722 Ry
VLOCAL1: 99.9% of the norm of Vloc inside     42.668 Ry
atom: Maximum radius for 4*pi*r*r*local-pseudopot. charge    1.83678
atom: Maximum radius for r*vlocal+2*Zval:    1.58088
GHOST: No ghost state for L =  0
GHOST: No ghost state for L =  1
GHOST: No ghost state for L =  2
GHOST: No ghost state for L =  3

KBgen: Kleinman-Bylander projectors: 
   l= 0   rc=  1.747182   el= -1.001948   Ekb=  4.950286   kbcos=  0.319819
   l= 1   rc=  1.747182   el= -0.398598   Ekb= -4.108613   kbcos= -0.367053
   l= 2   rc=  1.930978   el=  0.002326   Ekb= -1.042946   kbcos= -0.009366
   l= 3   rc=  2.055542   el=  0.003420   Ekb= -0.408633   kbcos= -0.001262

KBgen: Total number of  Kleinman-Bylander projectors:   16
atom: -------------------------------------------------------------------------

atom: SANKEY-TYPE ORBITALS:
atom: Selected multiple-zeta basis: split     

SPLIT: Orbitals with angular momentum L= 0

SPLIT: Basis orbitals for state 2s

SPLIT: PAO cut-off radius determined from an
SPLIT: energy shift=  0.020000 Ry

   izeta = 1
                 lambda =    1.000000
                     rc =    4.191849
                 energy =   -0.983897
                kinetic =    0.880927
    potential(screened) =   -1.864824
       potential(ionic) =   -5.475687

   izeta = 2
                 rmatch =    3.431921
              splitnorm =    0.150000
                 energy =   -0.853083
                kinetic =    1.298222
    potential(screened) =   -2.151305
       potential(ionic) =   -5.995890

SPLIT: Orbitals with angular momentum L= 1

SPLIT: Basis orbitals for state 2p

SPLIT: PAO cut-off radius determined from an
SPLIT: energy shift=  0.020000 Ry

   izeta = 1
                 lambda =    1.000000
                     rc =    4.870301
                 energy =   -0.379093
                kinetic =    2.540023
    potential(screened) =   -2.919116
       potential(ionic) =   -6.427960

   izeta = 2
                 rmatch =    3.475094
              splitnorm =    0.150000
                 energy =   -0.215057
                kinetic =    3.814571
    potential(screened) =   -4.029628
       potential(ionic) =   -7.920250

POLgen: Perturbative polarization orbital with L=  2

POLgen: Polarization orbital for state 2p

   izeta = 1
                     rc =    4.870301
                 energy =    1.280996
                kinetic =    2.631310
    potential(screened) =   -1.350314
       potential(ionic) =   -4.295640
atom: Total number of Sankey-type orbitals: 13

atm_pop: Valence configuration (for local Pseudopot. screening):
 2s( 2.00)                                                            
 2p( 2.00)                                                            
Vna: chval, zval:    4.00000   4.00000

Vna:  Cut-off radius for the neutral-atom potential:   4.870301

atom: _________________________________________________________________________

<basis_specs>
===============================================================================
H                    Z=   1    Mass=  1.0100        Charge= 0.17977+309
Lmxo=0 Lmxkb= 2    BasisType=split      Semic=F
L=0  Nsemic=0  Cnfigmx=1
          n=1  nzeta=2  polorb=1
            splnorm:   0.15000    
               vcte:    0.0000    
               rinn:    0.0000    
               qcoe:    0.0000    
               qyuk:    0.0000    
               qwid:   0.10000E-01
                rcs:    0.0000      0.0000    
            lambdas:    1.0000      1.0000    
-------------------------------------------------------------------------------
L=0  Nkbl=1  erefs: 0.17977+309
L=1  Nkbl=1  erefs: 0.17977+309
L=2  Nkbl=1  erefs: 0.17977+309
===============================================================================
</basis_specs>

atom: Called for H                     (Z =   1)

read_vps: Pseudopotential generation method:
read_vps: ATM3      Troullier-Martins                       
Total valence charge:    1.00000

xc_check: Exchange-correlation functional:
xc_check: Ceperley-Alder
V l=0 = -2*Zval/r beyond r=  1.2977
V l=1 = -2*Zval/r beyond r=  1.2815
V l=2 = -2*Zval/r beyond r=  1.1307
All V_l potentials equal beyond r=  1.2977
This should be close to max(r_c) in ps generation
All pots = -2*Zval/r beyond r=  1.2977

VLOCAL1: 99.0% of the norm of Vloc inside     25.776 Ry
VLOCAL1: 99.9% of the norm of Vloc inside     58.745 Ry
atom: Maximum radius for 4*pi*r*r*local-pseudopot. charge    1.52711
atom: Maximum radius for r*vlocal+2*Zval:    1.28155
GHOST: No ghost state for L =  0
GHOST: No ghost state for L =  1
GHOST: No ghost state for L =  2

KBgen: Kleinman-Bylander projectors: 
   l= 0   rc=  1.434438   el= -0.467325   Ekb= -1.940326   kbcos= -0.353040
   l= 1   rc=  1.508111   el=  0.001430   Ekb= -0.480826   kbcos= -0.024144
   l= 2   rc=  1.527112   el=  0.002365   Ekb= -0.479392   kbcos= -0.001656

KBgen: Total number of  Kleinman-Bylander projectors:    9
atom: -------------------------------------------------------------------------

atom: SANKEY-TYPE ORBITALS:
atom: Selected multiple-zeta basis: split     

SPLIT: Orbitals with angular momentum L= 0

SPLIT: Basis orbitals for state 1s

SPLIT: PAO cut-off radius determined from an
SPLIT: energy shift=  0.020000 Ry

   izeta = 1
                 lambda =    1.000000
                     rc =    4.828263
                 energy =   -0.449375
                kinetic =    0.925762
    potential(screened) =   -1.375137
       potential(ionic) =   -1.911235

   izeta = 2
                 rmatch =    3.854947
              splitnorm =    0.150000
                 energy =   -0.336149
                kinetic =    1.498089
    potential(screened) =   -1.834238
       potential(ionic) =   -2.406110

POLgen: Perturbative polarization orbital with L=  1

POLgen: Polarization orbital for state 1s

   izeta = 1
                     rc =    4.828263
                 energy =    0.707053
                kinetic =    1.398668
    potential(screened) =   -0.691614
       potential(ionic) =   -1.171973
atom: Total number of Sankey-type orbitals:  5

atm_pop: Valence configuration (for local Pseudopot. screening):
 1s( 1.00)                                                            
Vna: chval, zval:    1.00000   1.00000

Vna:  Cut-off radius for the neutral-atom potential:   4.828263

atom: _________________________________________________________________________

prinput: Basis input ----------------------------------------------------------

PAO.BasisType split     

%block ChemicalSpeciesLabel
    1    6 C                       # Species index, atomic number, species label
    2    1 H                       # Species index, atomic number, species label
%endblock ChemicalSpeciesLabel

%block PAO.Basis                 # Define Basis set
C                     2                    # Species label, number of l-shells
 n=2   0   2                         # n, l, Nzeta 
   4.192      3.432   
   1.000      1.000   
 n=2   1   2 P   1                   # n, l, Nzeta, Polarization, NzetaPol
   4.870      3.475   
   1.000      1.000   
H                     1                    # Species label, number of l-shells
 n=1   0   2 P   1                   # n, l, Nzeta, Polarization, NzetaPol
   4.828      3.855   
   1.000      1.000   
%endblock PAO.Basis

prinput: ----------------------------------------------------------------------

coor:   Atomic-coordinates input format  =     Cartesian coordinates
coor:                                          (in Angstroms)

siesta: Atomic coordinates (Bohr) and species
siesta:      0.59030   0.53175   1.21509  1        1
siesta:      2.63900   0.13978   1.21509  2        2
siesta:      0.40557   2.60678   1.21509  2        3
siesta:     -0.59030  -0.53175  -1.21509  1        4
siesta:     -2.63900  -0.13978  -1.21509  2        5
siesta:     -0.40557  -2.60678  -1.21509  2        6
siesta:      0.59030   0.53175   6.07547  1        7
siesta:      2.63900   0.13978   6.07547  2        8
siesta:      0.40557   2.60678   6.07547  2        9
siesta:     -0.59030  -0.53175   3.64528  1       10
siesta:     -2.63900  -0.13978   3.64528  2       11
siesta:     -0.40557  -2.60678   3.64528  2       12
siesta:      0.59030   0.53175  10.93585  1       13
siesta:      2.63900   0.13978  10.93585  2       14
siesta:      0.40557   2.60678  10.93585  2       15
siesta:     -0.59030  -0.53175   8.50566  1       16
siesta:     -2.63900  -0.13978   8.50566  2       17
siesta:     -0.40557  -2.60678   8.50566  2       18
siesta:      0.59030   0.53175  15.79623  1       19
siesta:      2.63900   0.13978  15.79623  2       20
siesta:      0.40557   2.60678  15.79623  2       21
siesta:     -0.59030  -0.53175  13.36604  1       22
siesta:     -2.63900  -0.13978  13.36604  2       23
siesta:     -0.40557  -2.60678  13.36604  2       24
siesta:      0.59030   0.53175  20.65660  1       25
siesta:      2.63900   0.13978  20.65660  2       26
siesta:      0.40557   2.60678  20.65660  2       27
siesta:     -0.59030  -0.53175  18.22642  1       28
siesta:     -2.63900  -0.13978  18.22642  2       29
siesta:     -0.40557  -2.60678  18.22642  2       30
siesta:      0.59030   0.53175  25.51698  1       31
siesta:      2.63900   0.13978  25.51698  2       32
siesta:      0.40557   2.60678  25.51698  2       33
siesta:     -0.59030  -0.53175  23.08679  1       34
siesta:     -2.63900  -0.13978  23.08679  2       35
siesta:     -0.40557  -2.60678  23.08679  2       36
siesta:      0.59030   0.53175  30.37736  1       37
siesta:      2.63900   0.13978  30.37736  2       38
siesta:      0.40557   2.60678  30.37736  2       39
siesta:     -0.59030  -0.53175  27.94717  1       40
siesta:     -2.63900  -0.13978  27.94717  2       41
siesta:     -0.40557  -2.60678  27.94717  2       42
siesta:      0.59030   0.53175  35.23774  1       43
siesta:      2.63900   0.13978  35.23774  2       44
siesta:      0.40557   2.60678  35.23774  2       45
siesta:     -0.59030  -0.53175  32.80755  1       46
siesta:     -2.63900  -0.13978  32.80755  2       47
siesta:     -0.40557  -2.60678  32.80755  2       48
siesta:      0.59030   0.53175  40.09811  1       49
siesta:      2.63900   0.13978  40.09811  2       50
siesta:      0.40557   2.60678  40.09811  2       51
siesta:     -0.59030  -0.53175  37.66793  1       52
siesta:     -2.63900  -0.13978  37.66793  2       53
siesta:     -0.40557  -2.60678  37.66793  2       54
siesta:      0.59030   0.53175  44.95849  1       55
siesta:      2.63900   0.13978  44.95849  2       56
siesta:      0.40557   2.60678  44.95849  2       57
siesta:     -0.59030  -0.53175  42.52830  1       58
siesta:     -2.63900  -0.13978  42.52830  2       59
siesta:     -0.40557  -2.60678  42.52830  2       60
siesta:      0.59030   0.53175  49.81887  1       61
siesta:      2.63900   0.13978  49.81887  2       62
siesta:      0.40557   2.60678  49.81887  2       63
siesta:     -0.59030  -0.53175  47.38868  1       64
siesta:     -2.63900  -0.13978  47.38868  2       65
siesta:     -0.40557  -2.60678  47.38868  2       66
siesta:      0.59030   0.53175  54.67925  1       67
siesta:      2.63900   0.13978  54.67925  2       68
siesta:      0.40557   2.60678  54.67925  2       69
siesta:     -0.59030  -0.53175  52.24906  1       70
siesta:     -2.63900  -0.13978  52.24906  2       71
siesta:     -0.40557  -2.60678  52.24906  2       72
siesta:      0.59030   0.53175  59.53962  1       73
siesta:      2.63900   0.13978  59.53962  2       74
siesta:      0.40557   2.60678  59.53962  2       75
siesta:     -0.59030  -0.53175  57.10944  1       76
siesta:     -2.63900  -0.13978  57.10944  2       77
siesta:     -0.40557  -2.60678  57.10944  2       78
siesta:      0.59030   0.53175  64.40000  1       79
siesta:      2.63900   0.13978  64.40000  2       80
siesta:      0.40557   2.60678  64.40000  2       81
siesta:     -0.59030  -0.53175  61.96981  1       82
siesta:     -2.63900  -0.13978  61.96981  2       83
siesta:     -0.40557  -2.60678  61.96981  2       84
siesta:      0.59030   0.53175  69.26038  1       85
siesta:      2.63900   0.13978  69.26038  2       86
siesta:      0.40557   2.60678  69.26038  2       87
siesta:     -0.59030  -0.53175  66.83019  1       88
siesta:     -2.63900  -0.13978  66.83019  2       89
siesta:     -0.40557  -2.60678  66.83019  2       90
siesta:      0.59030   0.53175  74.12076  1       91
siesta:      2.63900   0.13978  74.12076  2       92
siesta:      0.40557   2.60678  74.12076  2       93
siesta:     -0.59030  -0.53175  71.69057  1       94
siesta:     -2.63900  -0.13978  71.69057  2       95
siesta:     -0.40557  -2.60678  71.69057  2       96
siesta:      0.59030   0.53175  78.98113  1       97
siesta:      2.63900   0.13978  78.98113  2       98
siesta:      0.40557   2.60678  78.98113  2       99
siesta:     -0.59030  -0.53175  76.55095  1      100
siesta:     -2.63900  -0.13978  76.55095  2      101
siesta:     -0.40557  -2.60678  76.55095  2      102
siesta:      0.59030   0.53175  83.84151  1      103
siesta:      2.63900   0.13978  83.84151  2      104
siesta:      0.40557   2.60678  83.84151  2      105
siesta:     -0.59030  -0.53175  81.41132  1      106
siesta:     -2.63900  -0.13978  81.41132  2      107
siesta:     -0.40557  -2.60678  81.41132  2      108
siesta:      0.59030   0.53175  88.70189  1      109
siesta:      2.63900   0.13978  88.70189  2      110
siesta:      0.40557   2.60678  88.70189  2      111
siesta:     -0.59030  -0.53175  86.27170  1      112
siesta:     -2.63900  -0.13978  86.27170  2      113
siesta:     -0.40557  -2.60678  86.27170  2      114
siesta:      0.59030   0.53175  93.56227  1      115
siesta:      2.63900   0.13978  93.56227  2      116
siesta:      0.40557   2.60678  93.56227  2      117
siesta:     -0.59030  -0.53175  91.13208  1      118
siesta:     -2.63900  -0.13978  91.13208  2      119
siesta:     -0.40557  -2.60678  91.13208  2      120
siesta:      0.59030   0.53175  98.42264  1      121
siesta:      2.63900   0.13978  98.42264  2      122
siesta:      0.40557   2.60678  98.42264  2      123
siesta:     -0.59030  -0.53175  95.99246  1      124
siesta:     -2.63900  -0.13978  95.99246  2      125
siesta:     -0.40557  -2.60678  95.99246  2      126
siesta:      0.59030   0.53175 103.28302  1      127
siesta:      2.63900   0.13978 103.28302  2      128
siesta:      0.40557   2.60678 103.28302  2      129
siesta:     -0.59030  -0.53175 100.85283  1      130
siesta:     -2.63900  -0.13978 100.85283  2      131
siesta:     -0.40557  -2.60678 100.85283  2      132
siesta:      0.59030   0.53175 108.14340  1      133
siesta:      2.63900   0.13978 108.14340  2      134
siesta:      0.40557   2.60678 108.14340  2      135
siesta:     -0.59030  -0.53175 105.71321  1      136
siesta:     -2.63900  -0.13978 105.71321  2      137
siesta:     -0.40557  -2.60678 105.71321  2      138
siesta:      0.59030   0.53175 113.00378  1      139
siesta:      2.63900   0.13978 113.00378  2      140
siesta:      0.40557   2.60678 113.00378  2      141
siesta:     -0.59030  -0.53175 110.57359  1      142
siesta:     -2.63900  -0.13978 110.57359  2      143
siesta:     -0.40557  -2.60678 110.57359  2      144
siesta:      0.59030   0.53175 117.86416  1      145
siesta:      2.63900   0.13978 117.86416  2      146
siesta:      0.40557   2.60678 117.86416  2      147
siesta:     -0.59030  -0.53175 115.43397  1      148
siesta:     -2.63900  -0.13978 115.43397  2      149
siesta:     -0.40557  -2.60678 115.43397  2      150
siesta:      0.59030   0.53175 122.72453  1      151
siesta:      2.63900   0.13978 122.72453  2      152
siesta:      0.40557   2.60678 122.72453  2      153
siesta:     -0.59030  -0.53175 120.29434  1      154
siesta:     -2.63900  -0.13978 120.29434  2      155
siesta:     -0.40557  -2.60678 120.29434  2      156
siesta:      0.59030   0.53175 127.58491  1      157
siesta:      2.63900   0.13978 127.58491  2      158
siesta:      0.40557   2.60678 127.58491  2      159
siesta:     -0.59030  -0.53175 125.15472  1      160
siesta:     -2.63900  -0.13978 125.15472  2      161
siesta:     -0.40557  -2.60678 125.15472  2      162
siesta:      0.59030   0.53175 132.44529  1      163
siesta:      2.63900   0.13978 132.44529  2      164
siesta:      0.40557   2.60678 132.44529  2      165
siesta:     -0.59030  -0.53175 130.01510  1      166
siesta:     -2.63900  -0.13978 130.01510  2      167
siesta:     -0.40557  -2.60678 130.01510  2      168
siesta:      0.59030   0.53175 137.30567  1      169
siesta:      2.63900   0.13978 137.30567  2      170
siesta:      0.40557   2.60678 137.30567  2      171
siesta:     -0.59030  -0.53175 134.87548  1      172
siesta:     -2.63900  -0.13978 134.87548  2      173
siesta:     -0.40557  -2.60678 134.87548  2      174
siesta:      0.59030   0.53175 142.16604  1      175
siesta:      2.63900   0.13978 142.16604  2      176
siesta:      0.40557   2.60678 142.16604  2      177
siesta:     -0.59030  -0.53175 139.73585  1      178
siesta:     -2.63900  -0.13978 139.73585  2      179
siesta:     -0.40557  -2.60678 139.73585  2      180
siesta:      0.59030   0.53175 147.02642  1      181
siesta:      2.63900   0.13978 147.02642  2      182
siesta:      0.40557   2.60678 147.02642  2      183
siesta:     -0.59030  -0.53175 144.59623  1      184
siesta:     -2.63900  -0.13978 144.59623  2      185
siesta:     -0.40557  -2.60678 144.59623  2      186
siesta:      0.59030   0.53175 151.88680  1      187
siesta:      2.63900   0.13978 151.88680  2      188
siesta:      0.40557   2.60678 151.88680  2      189
siesta:     -0.59030  -0.53175 149.45661  1      190
siesta:     -2.63900  -0.13978 149.45661  2      191
siesta:     -0.40557  -2.60678 149.45661  2      192
siesta:      0.59030   0.53175 156.74718  1      193
siesta:      2.63900   0.13978 156.74718  2      194
siesta:      0.40557   2.60678 156.74718  2      195
siesta:     -0.59030  -0.53175 154.31699  1      196
siesta:     -2.63900  -0.13978 154.31699  2      197
siesta:     -0.40557  -2.60678 154.31699  2      198
siesta:      0.59030   0.53175 161.60755  1      199
siesta:      2.63900   0.13978 161.60755  2      200
siesta:      0.40557   2.60678 161.60755  2      201
siesta:     -0.59030  -0.53175 159.17736  1      202
siesta:     -2.63900  -0.13978 159.17736  2      203
siesta:     -0.40557  -2.60678 159.17736  2      204
siesta:      0.59030   0.53175 166.46793  1      205
siesta:      2.63900   0.13978 166.46793  2      206
siesta:      0.40557   2.60678 166.46793  2      207
siesta:     -0.59030  -0.53175 164.03774  1      208
siesta:     -2.63900  -0.13978 164.03774  2      209
siesta:     -0.40557  -2.60678 164.03774  2      210
siesta:      0.59030   0.53175 171.32831  1      211
siesta:      2.63900   0.13978 171.32831  2      212
siesta:      0.40557   2.60678 171.32831  2      213
siesta:     -0.59030  -0.53175 168.89812  1      214
siesta:     -2.63900  -0.13978 168.89812  2      215
siesta:     -0.40557  -2.60678 168.89812  2      216
siesta:      0.59030   0.53175 176.18869  1      217
siesta:      2.63900   0.13978 176.18869  2      218
siesta:      0.40557   2.60678 176.18869  2      219
siesta:     -0.59030  -0.53175 173.75850  1      220
siesta:     -2.63900  -0.13978 173.75850  2      221
siesta:     -0.40557  -2.60678 173.75850  2      222
siesta:      0.59030   0.53175 181.04906  1      223
siesta:      2.63900   0.13978 181.04906  2      224
siesta:      0.40557   2.60678 181.04906  2      225
siesta:     -0.59030  -0.53175 178.61887  1      226
siesta:     -2.63900  -0.13978 178.61887  2      227
siesta:     -0.40557  -2.60678 178.61887  2      228
siesta:      0.59030   0.53175 185.90944  1      229
siesta:      2.63900   0.13978 185.90944  2      230
siesta:      0.40557   2.60678 185.90944  2      231
siesta:     -0.59030  -0.53175 183.47925  1      232
siesta:     -2.63900  -0.13978 183.47925  2      233
siesta:     -0.40557  -2.60678 183.47925  2      234
siesta:      0.59030   0.53175 190.76982  1      235
siesta:      2.63900   0.13978 190.76982  2      236
siesta:      0.40557   2.60678 190.76982  2      237
siesta:     -0.59030  -0.53175 188.33963  1      238
siesta:     -2.63900  -0.13978 188.33963  2      239
siesta:     -0.40557  -2.60678 188.33963  2      240
siesta:      0.59030   0.53175 195.63020  1      241
siesta:      2.63900   0.13978 195.63020  2      242
siesta:      0.40557   2.60678 195.63020  2      243
siesta:     -0.59030  -0.53175 193.20001  1      244
siesta:     -2.63900  -0.13978 193.20001  2      245
siesta:     -0.40557  -2.60678 193.20001  2      246
siesta:      0.59030   0.53175 200.49057  1      247
siesta:      2.63900   0.13978 200.49057  2      248
siesta:      0.40557   2.60678 200.49057  2      249
siesta:     -0.59030  -0.53175 198.06038  1      250
siesta:     -2.63900  -0.13978 198.06038  2      251
siesta:     -0.40557  -2.60678 198.06038  2      252
siesta:      0.59030   0.53175 205.35095  1      253
siesta:      2.63900   0.13978 205.35095  2      254
siesta:      0.40557   2.60678 205.35095  2      255
siesta:     -0.59030  -0.53175 202.92076  1      256
siesta:     -2.63900  -0.13978 202.92076  2      257
siesta:     -0.40557  -2.60678 202.92076  2      258
siesta:      0.59030   0.53175 210.21133  1      259
siesta:      2.63900   0.13978 210.21133  2      260
siesta:      0.40557   2.60678 210.21133  2      261
siesta:     -0.59030  -0.53175 207.78114  1      262
siesta:     -2.63900  -0.13978 207.78114  2      263
siesta:     -0.40557  -2.60678 207.78114  2      264
siesta:      0.59030   0.53175 215.07171  1      265
siesta:      2.63900   0.13978 215.07171  2      266
siesta:      0.40557   2.60678 215.07171  2      267
siesta:     -0.59030  -0.53175 212.64152  1      268
siesta:     -2.63900  -0.13978 212.64152  2      269
siesta:     -0.40557  -2.60678 212.64152  2      270
siesta:      0.59030   0.53175 219.93208  1      271
siesta:      2.63900   0.13978 219.93208  2      272
siesta:      0.40557   2.60678 219.93208  2      273
siesta:     -0.59030  -0.53175 217.50189  1      274
siesta:     -2.63900  -0.13978 217.50189  2      275
siesta:     -0.40557  -2.60678 217.50189  2      276
siesta:      0.59030   0.53175 224.79246  1      277
siesta:      2.63900   0.13978 224.79246  2      278
siesta:      0.40557   2.60678 224.79246  2      279
siesta:     -0.59030  -0.53175 222.36227  1      280
siesta:     -2.63900  -0.13978 222.36227  2      281
siesta:     -0.40557  -2.60678 222.36227  2      282
siesta:      0.59030   0.53175 229.65284  1      283
siesta:      2.63900   0.13978 229.65284  2      284
siesta:      0.40557   2.60678 229.65284  2      285
siesta:     -0.59030  -0.53175 227.22265  1      286
siesta:     -2.63900  -0.13978 227.22265  2      287
siesta:     -0.40557  -2.60678 227.22265  2      288
siesta:      0.59030   0.53175 234.51322  1      289
siesta:      2.63900   0.13978 234.51322  2      290
siesta:      0.40557   2.60678 234.51322  2      291
siesta:     -0.59030  -0.53175 232.08303  1      292
siesta:     -2.63900  -0.13978 232.08303  2      293
siesta:     -0.40557  -2.60678 232.08303  2      294
siesta:      0.59030   0.53175 239.37359  1      295
siesta:      2.63900   0.13978 239.37359  2      296
siesta:      0.40557   2.60678 239.37359  2      297
siesta:     -0.59030  -0.53175 236.94340  1      298
siesta:     -2.63900  -0.13978 236.94340  2      299
siesta:     -0.40557  -2.60678 236.94340  2      300
siesta:      0.59030   0.53175 244.23397  1      301
siesta:      2.63900   0.13978 244.23397  2      302
siesta:      0.40557   2.60678 244.23397  2      303
siesta:     -0.59030  -0.53175 241.80378  1      304
siesta:     -2.63900  -0.13978 241.80378  2      305
siesta:     -0.40557  -2.60678 241.80378  2      306
siesta:      0.59030   0.53175 249.09435  1      307
siesta:      2.63900   0.13978 249.09435  2      308
siesta:      0.40557   2.60678 249.09435  2      309
siesta:     -0.59030  -0.53175 246.66416  1      310
siesta:     -2.63900  -0.13978 246.66416  2      311
siesta:     -0.40557  -2.60678 246.66416  2      312
siesta:      0.59030   0.53175 253.95473  1      313
siesta:      2.63900   0.13978 253.95473  2      314
siesta:      0.40557   2.60678 253.95473  2      315
siesta:     -0.59030  -0.53175 251.52454  1      316
siesta:     -2.63900  -0.13978 251.52454  2      317
siesta:     -0.40557  -2.60678 251.52454  2      318
siesta:      0.59030   0.53175 258.81510  1      319
siesta:      2.63900   0.13978 258.81510  2      320
siesta:      0.40557   2.60678 258.81510  2      321
siesta:     -0.59030  -0.53175 256.38491  1      322
siesta:     -2.63900  -0.13978 256.38491  2      323
siesta:     -0.40557  -2.60678 256.38491  2      324
siesta:      0.59030   0.53175 263.67548  1      325
siesta:      2.63900   0.13978 263.67548  2      326
siesta:      0.40557   2.60678 263.67548  2      327
siesta:     -0.59030  -0.53175 261.24529  1      328
siesta:     -2.63900  -0.13978 261.24529  2      329
siesta:     -0.40557  -2.60678 261.24529  2      330
siesta:      0.59030   0.53175 268.53586  1      331
siesta:      2.63900   0.13978 268.53586  2      332
siesta:      0.40557   2.60678 268.53586  2      333
siesta:     -0.59030  -0.53175 266.10567  1      334
siesta:     -2.63900  -0.13978 266.10567  2      335
siesta:     -0.40557  -2.60678 266.10567  2      336
siesta:      0.59030   0.53175 273.39624  1      337
siesta:      2.63900   0.13978 273.39624  2      338
siesta:      0.40557   2.60678 273.39624  2      339
siesta:     -0.59030  -0.53175 270.96605  1      340
siesta:     -2.63900  -0.13978 270.96605  2      341
siesta:     -0.40557  -2.60678 270.96605  2      342
siesta:      0.59030   0.53175 278.25661  1      343
siesta:      2.63900   0.13978 278.25661  2      344
siesta:      0.40557   2.60678 278.25661  2      345
siesta:     -0.59030  -0.53175 275.82642  1      346
siesta:     -2.63900  -0.13978 275.82642  2      347
siesta:     -0.40557  -2.60678 275.82642  2      348
siesta:      0.59030   0.53175 283.11699  1      349
siesta:      2.63900   0.13978 283.11699  2      350
siesta:      0.40557   2.60678 283.11699  2      351
siesta:     -0.59030  -0.53175 280.68680  1      352
siesta:     -2.63900  -0.13978 280.68680  2      353
siesta:     -0.40557  -2.60678 280.68680  2      354
siesta:      0.59030   0.53175 287.97737  1      355
siesta:      2.63900   0.13978 287.97737  2      356
siesta:      0.40557   2.60678 287.97737  2      357
siesta:     -0.59030  -0.53175 285.54718  1      358
siesta:     -2.63900  -0.13978 285.54718  2      359
siesta:     -0.40557  -2.60678 285.54718  2      360
siesta:      0.59030   0.53175 292.83775  1      361
siesta:      2.63900   0.13978 292.83775  2      362
siesta:      0.40557   2.60678 292.83775  2      363
siesta:     -0.59030  -0.53175 290.40756  1      364
siesta:     -2.63900  -0.13978 290.40756  2      365
siesta:     -0.40557  -2.60678 290.40756  2      366
siesta:      0.59030   0.53175 297.69812  1      367
siesta:      2.63900   0.13978 297.69812  2      368
siesta:      0.40557   2.60678 297.69812  2      369
siesta:     -0.59030  -0.53175 295.26793  1      370
siesta:     -2.63900  -0.13978 295.26793  2      371
siesta:     -0.40557  -2.60678 295.26793  2      372
siesta:      0.59030   0.53175 302.55850  1      373
siesta:      2.63900   0.13978 302.55850  2      374
siesta:      0.40557   2.60678 302.55850  2      375
siesta:     -0.59030  -0.53175 300.12831  1      376
siesta:     -2.63900  -0.13978 300.12831  2      377
siesta:     -0.40557  -2.60678 300.12831  2      378
siesta:      0.59030   0.53175 307.41888  1      379
siesta:      2.63900   0.13978 307.41888  2      380
siesta:      0.40557   2.60678 307.41888  2      381
siesta:     -0.59030  -0.53175 304.98869  1      382
siesta:     -2.63900  -0.13978 304.98869  2      383
siesta:     -0.40557  -2.60678 304.98869  2      384

siesta: System type = chain     

initatomlists: Number of atoms, orbitals, and projectors:    384  2944  4352

siesta: ******************** Simulation parameters ****************************
siesta:
siesta: The following are some of the parameters of the simulation.
siesta: A complete list of the parameters used, including default values,
siesta: can be found in file out.fdf
siesta:
redata: Non-Collinear-spin run           =     F
redata: SpinPolarized (Up/Down) run      =     F
redata: Number of spin components        =     1
redata: Long output                      =     F
redata: Number of Atomic Species         =        2
redata: Charge density info will appear in .RHO file
redata: Write Mulliken Pop.              =     NO
redata: Mesh Cutoff                      =   100.0000  Ry
redata: Net charge of the system         =     0.0000 |e|
redata: Min. number of SCF Iter          =        0
redata: Max. number of SCF Iter          =       50
redata: Mix DM or H after convergence    =     F
redata: Recompute H after scf cycle      =     F
redata: Performing Pulay mixing using    =     3 iterations
redata: Mix DM in first SCF step ?       =     F
redata: Write Pulay info on disk?        =     F
redata: Discard 1st Pulay DM after  kick =     F
redata: New DM Mixing Weight             =     0.3000
redata: New DM Occupancy tolerance       = 0.000000000001
redata: No kicks to SCF
redata: DM Mixing Weight for Kicks       =     0.5000
redata: DM Tolerance for SCF             =     0.000100
redata: Require (free) Energy convergence in SCF =     F
redata: DM (free)Energy tolerance for SCF =     0.000010 eV
redata: Require Harris convergence for SCF =     F
redata: DM Harris energy tolerance for SCF =     0.000010 eV
redata: Using Saved Data (generic)   =     F
redata: Use continuation files for DM    =     F
redata: Neglect nonoverlap interactions  =     F
redata: Method of Calculation            =     old SLEPc
redata: Fix the spin of the system       =     F
redata: Dynamics option                  =     Single-point calculation
redata: ***********************************************************************
Total number of electrons:   768.000000
Total ionic charge:   768.000000

* ProcessorY, Blocksize:    8  23


* Orbital distribution balance (max,min):    23    23

 Kpoints in:  1 . Kpoints trimmed:  1

siesta: k-grid: Number of k-points =     1
siesta: k-grid: Cutoff (effective) =    10.000 Ang
siesta: k-grid: Supercell and displacements
siesta: k-grid:    1   0   0      0.000
siesta: k-grid:    0   1   0      0.000
siesta: k-grid:    0   0   1      0.000

                     ====================================
                        Single-point calculation
                     ====================================

outcell: Unit cell vectors (Ang):
       20.000000    0.000000    0.000000
        0.000000   20.000000    0.000000
        0.000000    0.000000  164.608000

outcell: Cell vector modules (Ang)   :   20.000000   20.000000  164.608000
outcell: Cell angles (23,13,12) (deg):     90.0000     90.0000     90.0000
outcell: Cell volume (Ang**3)        :  65843.2000
New_DM. Step:     1
Initializing Density Matrix...
New grid distribution:   1
           1       1:   64    1:    8    1:   32
           2       1:   64    1:    8   33:   64
           3       1:   64    1:    8   65:   96
           4       1:   64    1:    8   97:  128
           5       1:   64    1:    8  129:  159
           6       1:   64    1:    8  160:  190
           7       1:   64    1:    8  191:  221
           8       1:   64    1:    8  222:  252
           9       1:   64    1:    8  253:  283
          10       1:   64    1:    8  284:  314
          11       1:   64    1:    8  315:  345
          12       1:   64    1:    8  346:  376
          13       1:   64    1:    8  377:  407
          14       1:   64    1:    8  408:  438
          15       1:   64    1:    8  439:  469
          16       1:   64    1:    8  470:  500
          17       1:   64    9:   16    1:   32
          18       1:   64    9:   16   33:   64
          19       1:   64    9:   16   65:   96
          20       1:   64    9:   16   97:  128
          21       1:   64    9:   16  129:  159
          22       1:   64    9:   16  160:  190
          23       1:   64    9:   16  191:  221
          24       1:   64    9:   16  222:  252
          25       1:   64    9:   16  253:  283
          26       1:   64    9:   16  284:  314
          27       1:   64    9:   16  315:  345
          28       1:   64    9:   16  346:  376
          29       1:   64    9:   16  377:  407
          30       1:   64    9:   16  408:  438
          31       1:   64    9:   16  439:  469
          32       1:   64    9:   16  470:  500
          33       1:   64   17:   24    1:   32
          34       1:   64   17:   24   33:   64
          35       1:   64   17:   24   65:   96
          36       1:   64   17:   24   97:  128
          37       1:   64   17:   24  129:  159
          38       1:   64   17:   24  160:  190
          39       1:   64   17:   24  191:  221
          40       1:   64   17:   24  222:  252
          41       1:   64   17:   24  253:  283
          42       1:   64   17:   24  284:  314
          43       1:   64   17:   24  315:  345
          44       1:   64   17:   24  346:  376
          45       1:   64   17:   24  377:  407
          46       1:   64   17:   24  408:  438
          47       1:   64   17:   24  439:  469
          48       1:   64   17:   24  470:  500
          49       1:   64   25:   32    1:   32
          50       1:   64   25:   32   33:   64
          51       1:   64   25:   32   65:   96
          52       1:   64   25:   32   97:  128
          53       1:   64   25:   32  129:  159
          54       1:   64   25:   32  160:  190
          55       1:   64   25:   32  191:  221
          56       1:   64   25:   32  222:  252
          57       1:   64   25:   32  253:  283
          58       1:   64   25:   32  284:  314
          59       1:   64   25:   32  315:  345
          60       1:   64   25:   32  346:  376
          61       1:   64   25:   32  377:  407
          62       1:   64   25:   32  408:  438
          63       1:   64   25:   32  439:  469
          64       1:   64   25:   32  470:  500
          65       1:   64   33:   40    1:   32
          66       1:   64   33:   40   33:   64
          67       1:   64   33:   40   65:   96
          68       1:   64   33:   40   97:  128
          69       1:   64   33:   40  129:  159
          70       1:   64   33:   40  160:  190
          71       1:   64   33:   40  191:  221
          72       1:   64   33:   40  222:  252
          73       1:   64   33:   40  253:  283
          74       1:   64   33:   40  284:  314
          75       1:   64   33:   40  315:  345
          76       1:   64   33:   40  346:  376
          77       1:   64   33:   40  377:  407
          78       1:   64   33:   40  408:  438
          79       1:   64   33:   40  439:  469
          80       1:   64   33:   40  470:  500
          81       1:   64   41:   48    1:   32
          82       1:   64   41:   48   33:   64
          83       1:   64   41:   48   65:   96
          84       1:   64   41:   48   97:  128
          85       1:   64   41:   48  129:  159
          86       1:   64   41:   48  160:  190
          87       1:   64   41:   48  191:  221
          88       1:   64   41:   48  222:  252
          89       1:   64   41:   48  253:  283
          90       1:   64   41:   48  284:  314
          91       1:   64   41:   48  315:  345
          92       1:   64   41:   48  346:  376
          93       1:   64   41:   48  377:  407
          94       1:   64   41:   48  408:  438
          95       1:   64   41:   48  439:  469
          96       1:   64   41:   48  470:  500
          97       1:   64   49:   56    1:   32
          98       1:   64   49:   56   33:   64
          99       1:   64   49:   56   65:   96
         100       1:   64   49:   56   97:  128
         101       1:   64   49:   56  129:  159
         102       1:   64   49:   56  160:  190
         103       1:   64   49:   56  191:  221
         104       1:   64   49:   56  222:  252
         105       1:   64   49:   56  253:  283
         106       1:   64   49:   56  284:  314
         107       1:   64   49:   56  315:  345
         108       1:   64   49:   56  346:  376
         109       1:   64   49:   56  377:  407
         110       1:   64   49:   56  408:  438
         111       1:   64   49:   56  439:  469
         112       1:   64   49:   56  470:  500
         113       1:   64   57:   64    1:   32
         114       1:   64   57:   64   33:   64
         115       1:   64   57:   64   65:   96
         116       1:   64   57:   64   97:  128
         117       1:   64   57:   64  129:  159
         118       1:   64   57:   64  160:  190
         119       1:   64   57:   64  191:  221
         120       1:   64   57:   64  222:  252
         121       1:   64   57:   64  253:  283
         122       1:   64   57:   64  284:  314
         123       1:   64   57:   64  315:  345
         124       1:   64   57:   64  346:  376
         125       1:   64   57:   64  377:  407
         126       1:   64   57:   64  408:  438
         127       1:   64   57:   64  439:  469
         128       1:   64   57:   64  470:  500

InitMesh: MESH =   128 x   128 x  1000 =    16384000
InitMesh: (bp) =    64 x    64 x   500 =     2048000
InitMesh: Mesh cutoff (required, used) =   100.000   102.000 Ry
ExtMesh (bp) on 0 =   100 x    44 x    64 =      281600
New grid distribution:   2
           1       8:   64    8:   64   17:   31
           2       8:   64    1:    7  298:  313
           3       8:   64    1:    7  189:  204
           4       1:    7    1:    7  454:  469
           5       1:    7    1:    7  470:  485
           6       8:   64    1:    7  173:  188
           7       8:   64    8:   64  189:  203
           8       8:   64    1:    7  251:  266
           9       8:   64    1:    7  267:  282
          10       8:   64    1:    7  235:  250
          11       1:    7    1:    7   79:   94
          12       8:   64    8:   64  361:  375
          13       8:   64    1:    7   17:   32
          14       1:    7    1:    7  423:  438
          15       8:   64    8:   64  439:  453
          16       8:   64    1:    7  485:  500
          17       8:   64    8:   64    1:   16
          18       1:    7    8:   64   32:   47
          19       1:    7    8:   64   64:   79
          20       1:    7    1:    7  220:  235
          21       8:   64    8:   64  126:  141
          22       1:    7    8:   64  173:  188
          23       1:    7    1:    7  204:  219
          24       1:    7    8:   64  235:  250
          25       1:    7    8:   64  266:  281
          26       8:   64    1:    7  330:  344
          27       1:    7    1:    7  267:  282
          28       8:   64    8:   64  345:  360
          29       8:   64    8:   64  376:  391
          30       1:    7    8:   64  407:  422
          31       1:    7    8:   64  439:  454
          32       1:    7    1:    7  251:  266
          33       8:   64    1:    7  360:  375
          34       8:   64    8:   64   32:   47
          35       1:    7    1:    7  126:  141
          36       1:    7    8:   64  110:  125
          37       8:   64    1:    7  408:  422
          38       8:   64    8:   64  173:  188
          39       1:    7    8:   64  189:  204
          40       1:    7    1:    7  142:  157
          41       1:    7    1:    7   95:  110
          42       1:    7    8:   64  282:  297
          43       8:   64    8:   64  329:  344
          44       1:    7    8:   64  345:  359
          45       8:   64    1:    7  158:  172
          46       8:   64    8:   64  423:  438
          47       1:    7    1:    7  173:  188
          48       1:    7    8:   64  485:  500
          49       8:   64    1:    7  392:  407
          50       8:   64    8:   64   48:   63
          51       1:    7    1:    7   17:   32
          52       1:    7    8:   64   95:  109
          53       8:   64    1:    7  376:  391
          54       8:   64    1:    7  345:  359
          55       8:   64    8:   64  204:  219
          56       1:    7    1:    7  376:  391
          57       8:   64    1:    7  470:  484
          58       8:   64    8:   64  282:  297
          59       1:    7    1:    7  345:  360
          60       1:    7    8:   64  360:  375
          61       8:   64    1:    7    1:   16
          62       8:   64    8:   64  407:  422
          63       8:   64    1:    7  455:  469
          64       1:    7    1:    7    1:   16
          65       1:    7    1:    7  392:  407
          66       1:    7    8:   64   48:   63
          67       1:    7    8:   64   80:   94
          68       8:   64    8:   64   95:  110
          69       8:   64    1:    7   48:   63
          70       8:   64    1:    7  220:  234
          71       1:    7    1:    7  298:  313
          72       8:   64    8:   64  220:  235
          73       8:   64    8:   64  251:  266
          74       8:   64    1:    7   80:   94
          75       1:    7    8:   64  314:  329
          76       1:    7    1:    7   48:   63
          77       1:    7    1:    7  329:  344
          78       1:    7    8:   64  423:  438
          79       8:   64    8:   64  454:  469
          80       1:    7    8:   64  470:  484
          81       1:    7    8:   64   16:   31
          82       8:   64    1:    7  205:  219
          83       8:   64    8:   64   79:   94
          84       1:    7    1:    7   33:   47
          85       8:   64    1:    7  423:  438
          86       8:   64    8:   64  157:  172
          87       1:    7    1:    7  111:  125
          88       1:    7    8:   64  220:  234
          89       8:   64    1:    7  314:  329
          90       8:   64    8:   64  298:  313
          91       1:    7    8:   64  330:  344
          92       1:    7    1:    7   64:   78
          93       1:    7    8:   64  391:  406
          94       1:    7    1:    7  283:  297
          95       1:    7    8:   64  455:  469
          96       8:   64    8:   64  470:  485
          97       8:   64    1:    7  142:  157
          98       1:    7    8:   64    1:   15
          99       1:    7    1:    7  314:  328
         100       8:   64    8:   64  111:  125
         101       8:   64    8:   64  142:  156
         102       8:   64    1:    7  126:  141
         103       1:    7    8:   64  205:  219
         104       1:    7    1:    7  236:  250
         105       8:   64    1:    7   33:   47
         106       1:    7    8:   64  298:  313
         107       8:   64    8:   64  314:  328
         108       1:    7    1:    7  408:  422
         109       8:   64    8:   64  392:  406
         110       8:   64    1:    7  110:  125
         111       1:    7    8:   64  251:  265
         112       1:    7    1:    7  361:  375
         113       8:   64    1:    7   64:   79
         114       1:    7    1:    7  486:  500
         115       8:   64    8:   64   64:   78
         116       1:    7    8:   64  126:  140
         117       8:   64    1:    7  439:  454
         118       8:   64    1:    7  283:  297
         119       1:    7    1:    7  158:  172
         120       8:   64    8:   64  236:  250
         121       8:   64    8:   64  267:  281
         122       1:    7    8:   64  141:  156
         123       1:    7    1:    7  439:  453
         124       1:    7    8:   64  376:  390
         125       1:    7    8:   64  157:  172
         126       8:   64    1:    7   95:  109
         127       1:    7    1:    7  189:  203
         128       8:   64    8:   64  486:  500
New grid distribution:   3
           1       1:   36   13:   64  236:  250
           2      39:   64   13:   64   17:   31
           3      12:   64    1:   12  391:  406
           4       1:   11    1:   12   16:   31
           5       1:   36   13:   64  486:  500
           6      39:   64   13:   64  267:  281
           7      12:   64    1:   12  438:  453
           8       1:   11    1:   12   32:   47
           9       1:   36   13:   64  361:  375
          10      39:   64   13:   64  173:  187
          11      12:   64    1:   12  313:  328
          12       1:   11    1:   12  188:  203
          13       1:   36   13:   64  111:  125
          14      39:   64   13:   64  392:  406
          15       1:   11    1:   12  469:  484
          16      12:   64    1:   12  485:  500
          17       1:   38   13:   64   17:   31
          18      39:   64   13:   64   48:   62
          19      12:   64    1:   12  407:  422
          20       1:   11    1:   12  485:  500
          21      39:   64   13:   64  142:  156
          22       1:   38   13:   64  157:  171
          23      12:   64    1:   12  344:  359
          24       1:   11    1:   12  141:  156
          25       1:   38   13:   64  267:  281
          26      39:   64   13:   64  298:  312
          27       1:   11    1:   12  157:  172
          28      12:   64    1:   12  360:  375
          29      39:   64   13:   64  376:  391
          30       1:   38   13:   64  407:  421
          31       1:   11    1:   12  438:  453
          32      12:   64    1:   12  469:  484
          33      12:   64    1:   12   16:   31
          34       1:   38   13:   64   47:   62
          35       1:   11    1:   12  344:  359
          36      37:   64   13:   64  110:  125
          37      12:   64    1:   12   32:   47
          38       1:   38   13:   64  172:  187
          39      37:   64   13:   64  204:  219
          40       1:   11    1:   12  110:  125
          41      12:   64    1:   12  157:  172
          42       1:   38   13:   64  297:  312
          43      37:   64   13:   64  329:  344
          44       1:   11    1:   12  360:  375
          45       1:   38   13:   64  376:  391
          46      12:   64    1:   12  219:  234
          47      37:   64   13:   64  438:  453
          48       1:   11    1:   12   94:  109
          49       1:   38   13:   64    1:   16
          50      12:   64    1:   12   94:  109
          51      37:   64   13:   64   63:   78
          52       1:   11    1:   12   63:   78
          53       1:   38   13:   64  126:  141
          54      12:   64    1:   12  141:  156
          55      37:   64   13:   64  188:  203
          56       1:   11    1:   12  313:  328
          57       1:   38   13:   64  251:  266
          58      12:   64    1:   12  235:  250
          59       1:   11    1:   12  235:  250
          60      37:   64   13:   64  360:  375
          61      12:   64    1:   12  188:  203
          62       1:   38   13:   64  422:  437
          63       1:   11    1:   12  407:  422
          64      37:   64   13:   64  485:  500
          65      12:   64    1:   12   63:   78
          66       1:   11    1:   12  219:  234
          67      37:   64   13:   64   79:   94
          68       1:   36   13:   64   95:  110
          69      39:   64   13:   64  126:  141
          70      12:   64    1:   12  110:  125
          71       1:   11    1:   12  266:  281
          72       1:   36   13:   64  220:  235
          73      12:   64    1:   12  266:  281
          74       1:   11    1:   12  282:  297
          75      37:   64   13:   64  313:  328
          76       1:   36   13:   64  345:  360
          77      12:   64    1:   12  282:  297
          78       1:   11    1:   12  391:  406
          79       1:   36   13:   64  454:  469
          80      37:   64   13:   64  470:  484
          81      12:   64    1:   12   79:   93
          82       1:   11    1:   12  173:  187
          83       1:   36   13:   64   63:   78
          84      37:   64   13:   64   95:  109
          85      12:   64    1:   12    1:   15
          86       1:   11    1:   12  126:  140
          87       1:   36   13:   64  188:  203
          88      37:   64   13:   64  235:  250
          89      12:   64    1:   12  454:  468
          90       1:   11    1:   12  204:  218
          91       1:   36   13:   64  329:  344
          92      37:   64   13:   64  345:  359
          93      12:   64    1:   12   48:   62
          94       1:   11    1:   12   48:   62
          95      37:   64   13:   64  454:  469
          96       1:   36   13:   64  470:  485
          97      12:   64    1:   12  204:  218
          98      39:   64   13:   64   32:   47
          99       1:   36   13:   64   79:   94
         100       1:   11    1:   12    1:   15
         101      12:   64    1:   12  251:  265
         102       1:   11    1:   12   79:   93
         103       1:   36   13:   64  204:  219
         104      37:   64   13:   64  220:  234
         105      12:   64    1:   12  173:  187
         106      39:   64   13:   64  282:  297
         107       1:   36   13:   64  313:  328
         108       1:   11    1:   12  423:  437
         109      12:   64    1:   12  423:  437
         110      39:   64   13:   64  407:  422
         111       1:   36   13:   64  438:  453
         112       1:   11    1:   12  376:  390
         113      39:   64   13:   64    1:   16
         114       1:   38   13:   64   32:   46
         115      12:   64    1:   12  298:  312
         116       1:   11    1:   12  454:  468
         117       1:   38   13:   64  142:  156
         118      39:   64   13:   64  157:  172
         119      12:   64    1:   12  126:  140
         120       1:   11    1:   12  298:  312
         121      39:   64   13:   64  251:  266
         122       1:   38   13:   64  282:  296
         123      12:   64    1:   12  329:  343
         124       1:   11    1:   12  251:  265
         125       1:   38   13:   64  392:  406
         126      39:   64   13:   64  423:  437
         127      12:   64    1:   12  376:  390
         128       1:   11    1:   12  329:  343
Setting up quadratic distribution...
ExtMesh (bp) on 0 =    93 x    93 x    47 =      406503
PhiOnMesh: Number of (b)points on node 0 =                48735
PhiOnMesh: nlist on node 0 =                53563
QETSC: Last update           = Dec 2, 2016
QETSC: Number of ranks       =         128
QETSC: Number of slices      =          32
QETSC: Number of ranks/slice =           4
QETSC: Number of evals/slice =  12.00
QETSC: Number of req. evals  =         384
QETSC: Number of rows (all)  =        2944
QETSC: Number of rows (max)  =          23
QETSC: Number of rows (min)  =          23
QETSC: Number of nonzeros    =      609408
QETSC: Nonzero % (all)       =   7.03
QETSC: Nonzero % (max)       =   7.03
QETSC: Nonzero % (min)       =   7.03
QETSC: Density option        =           0
QETSC: Bin type given        =           7
QETSC: Bin buffer given      =   0.01
QETSC: Diff thresh           =   0.02
QETSC: Infinity type         =           2
QETSC: Inertia type          =           1
 QETSC: Shifts, inertias         =
      -INF     0
    -2.300     0
    -2.226     0
    -2.152     0
    -2.077     0
    -2.003     0
    -1.929     0
    -1.855     0
    -1.781     0
    -1.706     0
    -1.632    25
    -1.558    41
    -1.484    53
    -1.410    63
    -1.335    73
    -1.261    83
    -1.187   128
    -1.113   128
    -1.039   151
    -0.965   189
    -0.890   229
    -0.816   269
    -0.742   356
    -0.668   384
    -0.594   384
    -0.519   384
    -0.445   384
    -0.371   384
    -0.297   384
    -0.223   384
    -0.148   384
    -0.074   384
     0.000   384
 QETSc: Custers,iter,crange,npcmax,trial 1 0.313825538524251310E-01 22 35
-1.6767741935483869E+00
-1.6441290322580644E+00
-1.6137096774193547E+00
-1.5812499999999998E+00
-1.5456989247311825E+00
-1.5086021505376341E+00
-1.4764516129032257E+00
-1.4393548387096773E+00
-1.4022580645161291E+00
-1.3651612903225807E+00
-1.3280645161290323E+00
-1.2909677419354839E+00
-1.2530465949820788E+00
-1.2200716845878135E+00
-1.1887455197132615E+00
-1.0838709677419354E+00
-1.0516129032258064E+00
-1.0172325976230898E+00
-9.8404074702886235E-01
-9.5153225806451602E-01
-9.1999999999999993E-01
-8.8846774193548383E-01
-8.5693548387096763E-01
-8.2540322580645153E-01
-8.0163144234334438E-01
-7.8286985539488307E-01
-7.6410826844642188E-01
-7.4534668149796057E-01
-7.1543778801843305E-01
-6.8364055299539173E-01
-6.7304147465437780E-01
 QETSC: Bins             =
                   -INF
-1.7064516129032257E+00
-1.6702451612903224E+00
-1.6380451612903224E+00
-1.6072177419354836E+00
-1.5741397849462364E+00
-1.5382795698924729E+00
-1.5021720430107524E+00
-1.4690322580645161E+00
-1.4319354838709677E+00
-1.3948387096774195E+00
-1.3577419354838711E+00
-1.3206451612903227E+00
-1.2833835125448030E+00
-1.2464516129032257E+00
-1.2138064516129030E+00
-1.1677706093189963E+00
-1.0774193548387097E+00
-1.0447368421052630E+00
-1.0105942275042443E+00
-9.7753904923599311E-01
-9.4522580645161280E-01
-9.1369354838709671E-01
-8.8216129032258062E-01
-8.5062903225806441E-01
-8.2064886911383006E-01
-7.9787912495365210E-01
-7.7911753800519079E-01
-7.6035595105672960E-01
-7.3936490280205502E-01
-7.0907834101382483E-01
-6.8152073732718899E-01
-6.6774193548387095E-01
QETSC: Started iter            1
QETSC: Bin type used         =           7
QETSC: Buffer used           =   0.0000000000000000E+00
QETSC: EPS interval          =      -INF,    -0.668
QETSC: Inertia type          =           1
SLEPc: EPSSolve time = 31 2.190e-06
SLEPc: EPSSolve time = 0 1.819e-06
SLEPc: EPSSolve time = 15 2.139e-06
SLEPc: EPSSolve time = 16 2.391e-06
SLEPc: EPSSolve time = 30 2.185e-06
SLEPc: EPSSolve time = 12 1.139e+00
SLEPc: EPSSolve time = 10 1.152e+00
SLEPc: EPSSolve time = 7 1.158e+00
SLEPc: EPSSolve time = 29 1.159e+00
SLEPc: EPSSolve time = 8 1.164e+00
SLEPc: EPSSolve time = 9 1.175e+00
SLEPc: EPSSolve time = 11 1.176e+00
SLEPc: EPSSolve time = 5 1.181e+00
SLEPc: EPSSolve time = 3 1.182e+00
SLEPc: EPSSolve time = 6 1.183e+00
SLEPc: EPSSolve time = 4 1.214e+00
SLEPc: EPSSolve time = 1 1.229e+00
SLEPc: EPSSolve time = 2 1.234e+00
SLEPc: EPSSolve time = 17 1.330e+00
SLEPc: EPSSolve time = 13 1.533e+00
SLEPc: EPSSolve time = 23 1.679e+00
SLEPc: EPSSolve time = 21 1.691e+00
SLEPc: EPSSolve time = 18 1.702e+00
SLEPc: EPSSolve time = 26 1.705e+00
SLEPc: EPSSolve time = 19 1.712e+00
SLEPc: EPSSolve time = 22 1.716e+00
SLEPc: EPSSolve time = 24 1.717e+00
SLEPc: EPSSolve time = 25 1.755e+00
SLEPc: EPSSolve time = 20 1.758e+00
SLEPc: EPSSolve time = 14 1.993e+00
SLEPc: EPSSolve time = 27 2.388e+00
SLEPc: EPSSolve time = 28 3.131e+00
 QETSC: Eigenvalues         =
-1.6792898009683788E+00
-1.6789996922250237E+00
-1.6789996922250212E+00
-1.6781294751270788E+00
-1.6781294751270763E+00
-1.6766794797057352E+00
-1.6766794797057332E+00
-1.6746505299675296E+00
-1.6746499993000445E+00
-1.6720426298959861E+00
-1.6720426298959841E+00
-1.6688576336679242E+00
-1.6688576336679233E+00
-1.6650966130398825E+00
-1.6650966130398805E+00
-1.6607614371024078E+00
-1.6607609794869691E+00
-1.6558533903325978E+00
-1.6558533903325969E+00
-1.6503754914024324E+00
-1.6503754914024278E+00
-1.6443302401572799E+00
-1.6443302401572777E+00
-1.6377295940554955E+00
-1.6377119801211217E+00
-1.6305507782508757E+00
-1.6305507782508710E+00
-1.6228243859141687E+00
-1.6228243859141673E+00
-1.6145463468382311E+00
-1.6145463468382295E+00
-1.6057238485298069E+00
-1.6057202689753567E+00
-1.5963576464339879E+00
-1.5963576464339786E+00
-1.5864600543452132E+00
-1.5864600543451961E+00
-1.5760371562121054E+00
-1.5760371562120983E+00
-1.5650980815262401E+00
-1.5650976947079702E+00
-1.5536524078177190E+00
-1.5536524078177161E+00
-1.5417122890804165E+00
-1.5417122890804138E+00
-1.5292907595560843E+00
-1.5292907595560798E+00
-1.5164053129189896E+00
-1.5164006733068565E+00
-1.5030664732753714E+00
-1.5030664732753680E+00
-1.4893014430983480E+00
-1.4893014430983338E+00
-1.4751314672196476E+00
-1.4751314672196418E+00
-1.4605859526477929E+00
-1.4605823237561117E+00
-1.4456919638164303E+00
-1.4456919638164301E+00
-1.4304934842994337E+00
-1.4304934842994215E+00
-1.4150346797642179E+00
-1.4150346797641939E+00
-1.3993708446340902E+00
-1.3993706328007942E+00
-1.3835682609316895E+00
-1.3835682609316871E+00
-1.3677079616496588E+00
-1.3677079616496537E+00
-1.3518879007374940E+00
-1.3518879007374722E+00
-1.3362274355465449E+00
-1.3362268698821147E+00
-1.3208696050386517E+00
-1.3208696050386475E+00
-1.3059871485162737E+00
-1.3059871485162668E+00
-1.2917808422031045E+00
-1.2917808422031010E+00
-1.2784800720486731E+00
-1.2784754197941577E+00
-1.2663203998454047E+00
-1.2663203998452865E+00
-1.2555463253086592E+00
-1.2555463253085484E+00
-1.2470904146233490E+00
-1.2469283454191333E+00
-1.2469283454191318E+00
-1.2464447289491400E+00
-1.2464447289491374E+00
-1.2463579608698625E+00
-1.2463579608698583E+00
-1.2456472154882097E+00
-1.2456472154882061E+00
-1.2445511329937853E+00
-1.2445490155310346E+00
-1.2431719955249110E+00
-1.2431719955249072E+00
-1.2415397679311801E+00
-1.2415397679311766E+00
-1.2396878027010554E+00
-1.2396878027010507E+00
-1.2388873551662718E+00
-1.2388868415231373E+00
-1.2376603580876622E+00
-1.2376595314610439E+00
-1.2355113766498913E+00
-1.2355113766498835E+00
-1.2333110550986668E+00
-1.2333110550986590E+00
-1.2331706658876249E+00
-1.2331706658876216E+00
-1.2311447328227498E+00
-1.2311447328227427E+00
-1.2291398955564812E+00
-1.2291398955564772E+00
-1.2291355728970506E+00
-1.2291010883132214E+00
-1.2273622232059167E+00
-1.2273622232059103E+00
-1.2266368392047915E+00
-1.2266368392047857E+00
-1.2260345857478880E+00
-1.2260345857478803E+00
-1.2254460204095781E+00
-1.2254438109528072E+00
-1.2253232816404289E+00
-1.2253232816404196E+00
-1.0713228956673944E+00
-1.0710499858299651E+00
-1.0710499858299625E+00
-1.0702317714422229E+00
-1.0702317714422196E+00
-1.0688698019162639E+00
-1.0688698019162612E+00
-1.0669667197650883E+00
-1.0669666263856790E+00
-1.0645260473966467E+00
-1.0645260473966429E+00
-1.0615526824108230E+00
-1.0615526824108217E+00
-1.0580524673304932E+00
-1.0580524673304910E+00
-1.0540327137390766E+00
-1.0540322222397669E+00
-1.0495009803630615E+00
-1.0495009803630577E+00
-1.0444675933961483E+00
-1.0444675933961456E+00
-1.0389432685610560E+00
-1.0389432685610520E+00
-1.0329674555827515E+00
-1.0329131096867521E+00
-1.0264726340792421E+00
-1.0264726340792376E+00
-1.0195559391056275E+00
-1.0195559391056241E+00
-1.0122073346969094E+00
-1.0122073346969038E+00
-1.0044460043779424E+00
-1.0044458070891988E+00
-9.9629266224550794E-01
-9.9629266224550572E-01
-9.8777067184118783E-01
-9.8777067184118328E-01
-9.8740052528638311E-01
-9.8740052528638156E-01
-9.8643241425745110E-01
-9.8643241425744610E-01
-9.8637206098430696E-01
-9.8636866725050210E-01
-9.8357562706215307E-01
-9.8357562706213719E-01
-9.8327397795442062E-01
-9.8327397795440896E-01
-9.7926084190886753E-01
-9.7926084190885077E-01
-9.7890529484444688E-01
-9.7890529484444011E-01
-9.7781029778969963E-01
-9.7780937258140799E-01
-9.7366042164208411E-01
-9.7366042164207456E-01
-9.7002753701652944E-01
-9.7002753701652122E-01
-9.6972320410335888E-01
-9.6972268769345138E-01
-9.6698897826489072E-01
-9.6698654261686834E-01
-9.6025527154819534E-01
-9.6025527154819068E-01
-9.6003046783954382E-01
-9.6003046783953527E-01
-9.5943173734620602E-01
-9.5943173734619902E-01
-9.5115754962969268E-01
-9.5115754962967858E-01
-9.5053350911699241E-01
-9.5053350911698664E-01
-9.4801813545949032E-01
-9.4801813545947966E-01
-9.4230962176934929E-01
-9.4230962176933086E-01
-9.4059267006838032E-01
-9.4059267006837211E-01
-9.3426065352426968E-01
-9.3426041173873942E-01
-9.3301559336652495E-01
-9.3301458918303015E-01
-9.3047065682152852E-01
-9.3046975926727915E-01
-9.2338717302714157E-01
-9.2338717302713402E-01
-9.2020615535250105E-01
-9.2020615535249717E-01
-9.1906379254831239E-01
-9.1906379254830584E-01
-9.1352797951742237E-01
-9.1352797951741993E-01
-9.0984309357169657E-01
-9.0984309357168591E-01
-9.0353085306281189E-01
-9.0353085306280601E-01
-9.0274421172676589E-01
-9.0274421172675667E-01
-8.9942606175319939E-01
-8.9942606175318662E-01
-8.9348463382115939E-01
-8.9347944532050805E-01
-8.8900589749405312E-01
-8.8899887660551369E-01
-8.8561291607276549E-01
-8.8561291607276404E-01
-8.8346171752138558E-01
-8.8346171752137714E-01
-8.7862143536066251E-01
-8.7862143536065662E-01
-8.7354543096126669E-01
-8.7354543096125936E-01
-8.6833425672704645E-01
-8.6833425672704112E-01
-8.6804690445358745E-01
-8.6789137554837359E-01
-8.6380305140262803E-01
-8.6380305140262015E-01
-8.5819311968826706E-01
-8.5819311968826362E-01
-8.5430680711531681E-01
-8.5429329425999845E-01
-8.5010324537695048E-01
-8.5010324537693582E-01
-8.4825098361636453E-01
-8.4825087536717603E-01
-8.4509662912185690E-01
-8.4509662912184946E-01
-8.3856051981093349E-01
-8.3856051981092872E-01
-8.3624734800095701E-01
-8.3624734800095168E-01
-8.3229911840558102E-01
-8.3229911840556792E-01
-8.2917381577908111E-01
-8.2917381577907079E-01
-8.2780051029692214E-01
-8.2780051029691970E-01
-8.2014091292780611E-01
-8.2014091292779900E-01
-8.1979787362882794E-01
-8.1979723832528961E-01
-8.1483981700253116E-01
-8.1483981700252506E-01
-8.1227241803305861E-01
-8.1227241803304606E-01
-8.1151518046843396E-01
-8.1150285950138468E-01
-8.0525104093305488E-01
-8.0525104093304622E-01
-8.0332142504601844E-01
-8.0332142504601523E-01
-7.9875106300206189E-01
-7.9875106300205467E-01
-7.9801350807105631E-01
-7.9801321300489814E-01
-7.9561640395127831E-01
-7.9561640395127275E-01
-7.9278399810981082E-01
-7.9277948573019086E-01
-7.8842620048548995E-01
-7.8842620048548417E-01
-7.8734415773964506E-01
-7.8734415773964239E-01
-7.8243170068144252E-01
-7.8243170068143519E-01
-7.8211568233366779E-01
-7.8211568233366491E-01
-7.8177966912194141E-01
-7.8177261011081201E-01
-7.7803085705939268E-01
-7.7803085705938146E-01
-7.7568391594861597E-01
-7.7568391594861075E-01
-7.7416375497130541E-01
-7.7407952175655226E-01
-7.7068003486344749E-01
-7.7068003486343650E-01
-7.7015911279338090E-01
-7.7015911279337856E-01
-7.6767858036621572E-01
-7.6767858036620795E-01
-7.6745110280266837E-01
-7.6745110280266093E-01
-7.6520298288904431E-01
-7.6520298288904232E-01
-7.6508623200017223E-01
-7.6508623200016646E-01
-7.6287234945006288E-01
-7.6287197653911298E-01
-7.6100516989475908E-01
-7.6100516989475142E-01
-7.6080881789355714E-01
-7.6080831886212641E-01
-7.5945541382472281E-01
-7.5945541382471582E-01
-7.5819525951124989E-01
-7.5819525951124422E-01
-7.5720037474314983E-01
-7.5719955580743137E-01
-7.5696100996229865E-01
-7.5696100996229398E-01
-7.5644861223805260E-01
-7.5644861223804982E-01
-7.5592428903281994E-01
-7.5592428903281805E-01
-7.5561469461538888E-01
-7.5561469461538733E-01
-7.5551233467999734E-01
-7.5432972187097602E-01
-7.5432972187096803E-01
-7.5363839845206593E-01
-7.5363839845206160E-01
-7.5081232335703074E-01
-7.5081232335702686E-01
-7.4845001194273764E-01
-7.4844835303855417E-01
-7.4651122294940975E-01
-7.4651122294940842E-01
-7.4495779040358112E-01
-7.4495779040357801E-01
-7.4374691226461298E-01
-7.4374691226461020E-01
-7.4305858074300368E-01
-7.4305801850392672E-01
-7.4289389472808431E-01
-7.4276695911794155E-01
-7.4216931060170344E-01
-7.4216931060170177E-01
-7.4172819349613583E-01
-7.4172524935733541E-01
-7.4172524935733353E-01
-7.4171036453526684E-01
-7.4171036453526495E-01
-7.4165906361812306E-01
-7.4165906361812095E-01
-7.4158086979937887E-01
-7.4158086979937698E-01
-7.4148721195146561E-01
-7.4148615763349246E-01
-7.4145346341216423E-01
-7.4145346341216301E-01
-7.4139173159233229E-01
-7.4139173159233074E-01
-7.4131738596706209E-01
-7.4131661462699683E-01
-7.4131545045257985E-01
-7.4131545045257730E-01
-7.4128138157038370E-01
-7.4128138157038115E-01
-7.3392806673236821E-01
-7.3392806673236166E-01
-7.2719724255040663E-01
-7.2719724255040330E-01
-7.2307034828068506E-01
-7.2307034828068306E-01
-7.2167947510274211E-01
QETSC: Iter time (min)       =     1   4.17
QETSC: Iter time (max)       =     1   4.17
QETSC: Iter time (avg)       =     1   4.17
QETSC: Bin scores            =     1   0.71   0.01
QETSC: Empty bins            =     1           6
QETSC: Max,min eigs          =     1          56           4
QETSC: Max,min dists         =     1 2.716E-02 6.884E-06
QETSC: Bad bins              =     1          29          20
QETSC: Max neigs bin         =     1          29
QETSC: Max,min dist bins     =     1           2          15
QETSC: Num. of conv. evals   =     1         384
QETSC: Eigenvalue (1)        =     1  -1.6792898009683788E+00
QETSC: Eigenvalue (nocc)     =     1  -7.2167947510274211E-01
QETSC: Max differrence       =     1   1.6792898009683788E+00
QETSC: Safe iteration        =     1      F
QETSC: Finished iter         =           1
 *****************************************************************

siesta: Program's energy decomposition (eV):
siesta: Ebs     =    -10972.813260
siesta: Eions   =     37515.017267
siesta: Ena     =      8051.360606
siesta: Ekin    =     15139.467002
siesta: Enl     =     -1077.770530
siesta: DEna    =         0.000018
siesta: DUscf   =         0.000000
siesta: DUext   =         0.000000
siesta: Exc     =     -8032.963215
siesta: eta*DQ  =         0.000000
siesta: Emadel  =         0.000000
siesta: Emeta   =         0.000000
siesta: Emolmec =         0.000000
siesta: Ekinion =         0.000000
siesta: Eharris =    -23995.195586
siesta: Etot    =    -23434.923385
siesta: FreeEng =    -23434.923385
timer: Routine,Calls,Time,% =    IterSCF     1       5.950  27.34
 QETSC: Shifts, inertias         =
      -INF     0
    -2.300     0
    -2.226     0
    -2.152     0
    -2.077     0
    -2.003     0
    -1.929     0
    -1.855     0
    -1.781     0
    -1.706     0
    -1.632     0
    -1.558     0
    -1.484     0
    -1.410     0
    -1.335     0
    -1.261    13
    -1.187    35
    -1.113    47
    -1.039    57
    -0.965    67
    -0.890    77
    -0.816   128
    -0.742   128
    -0.668   157
    -0.594   173
    -0.519   223
    -0.445   261
    -0.371   365
    -0.297   375
    -0.223   384
    -0.148   384
    -0.074   384
     0.000   384
 QETSc: Custers,iter,crange,npcmax,trial 2 0.355411030176899095E-01 24 4
-1.3012406947890818E+00
-1.2612903225806451E+00
-1.2241935483870967E+00
-1.1870967741935483E+00
-1.1499999999999999E+00
-1.1129032258064515E+00
-1.0758064516129031E+00
-1.0387096774193547E+00
-1.0016129032258063E+00
-9.6451612903225792E-01
-9.2741935483870952E-01
-8.8450347881087910E-01
-8.4958886780518650E-01
-8.1758380771663497E-01
-7.0867630700778639E-01
-6.7285873192436041E-01
-6.3528225806451610E-01
-5.9818548387096770E-01
-5.5941935483870964E-01
-5.2380645161290318E-01
-4.8811544991511030E-01
-4.5101867572156190E-01
-4.3017990074441681E-01
-4.1305831265508680E-01
-3.9593672456575674E-01
-3.7881513647642673E-01
-3.4870967741935477E-01
-3.1161290322580643E-01
-2.7204301075268816E-01
-2.3906810035842291E-01
-2.2258064516129028E-01
 QETSC: Bins             =
                   -INF
-1.3354838709677419E+00
-1.2932506203473944E+00
-1.2538709677419355E+00
-1.2167741935483871E+00
-1.1796774193548387E+00
-1.1425806451612903E+00
-1.1054838709677419E+00
-1.0683870967741935E+00
-1.0312903225806451E+00
-9.9419354838709662E-01
-9.5709677419354822E-01
-9.1883617963314346E-01
-8.7752055660974060E-01
-8.4318785578747624E-01
-7.9580230757486525E-01
-7.0151279199110117E-01
-6.6534343715239153E-01
-6.2786290322580640E-01
-5.9043225806451605E-01
-5.5229677419354839E-01
-5.1666825127334459E-01
-4.8069609507640060E-01
-4.4685092072613286E-01
-4.2675558312655082E-01
-4.0963399503722081E-01
-3.9251240694789075E-01
-3.7279404466501231E-01
-3.4129032258064512E-01
-3.0369892473118276E-01
-2.6544802867383510E-01
-2.3577060931899638E-01
-2.2258064516129028E-01
QETSC: Started iter            2
QETSC: Bin type used         =           7
QETSC: Buffer used           =   0.0000000000000000E+00
QETSC: EPS interval          =      -INF,    -0.223
QETSC: Inertia type          =           1
SLEPc: EPSSolve time = 0 2.139e-06
SLEPc: EPSSolve time = 31 2.195e-06
SLEPc: EPSSolve time = 1 1.630e-06
SLEPc: EPSSolve time = 7 1.154e+00
SLEPc: EPSSolve time = 30 1.154e+00
SLEPc: EPSSolve time = 10 1.156e+00
SLEPc: EPSSolve time = 26 1.157e+00
SLEPc: EPSSolve time = 3 1.160e+00
SLEPc: EPSSolve time = 9 1.161e+00
SLEPc: EPSSolve time = 6 1.170e+00
SLEPc: EPSSolve time = 28 1.175e+00
SLEPc: EPSSolve time = 27 1.176e+00
SLEPc: EPSSolve time = 11 1.182e+00
SLEPc: EPSSolve time = 8 1.188e+00
SLEPc: EPSSolve time = 5 1.199e+00
SLEPc: EPSSolve time = 29 1.210e+00
SLEPc: EPSSolve time = 4 1.222e+00
SLEPc: EPSSolve time = 17 1.240e+00
SLEPc: EPSSolve time = 2 1.242e+00
SLEPc: EPSSolve time = 16 1.247e+00
SLEPc: EPSSolve time = 15 1.342e+00
SLEPc: EPSSolve time = 18 1.558e+00
SLEPc: EPSSolve time = 12 1.560e+00
SLEPc: EPSSolve time = 20 1.733e+00
SLEPc: EPSSolve time = 14 1.798e+00
SLEPc: EPSSolve time = 25 1.829e+00
SLEPc: EPSSolve time = 13 1.870e+00
SLEPc: EPSSolve time = 21 1.997e+00
SLEPc: EPSSolve time = 19 2.112e+00
SLEPc: EPSSolve time = 23 3.534e+00
SLEPc: EPSSolve time = 24 3.627e+00
SLEPc: EPSSolve time = 22 7.030e+00
 QETSC: Eigenvalues         =
-1.2740833956464965E+00
-1.2737830711509159E+00
-1.2737830710943876E+00
-1.2728822068006720E+00
-1.2728822067788743E+00
-1.2713811338712548E+00
-1.2713811338613008E+00
-1.2692810696343182E+00
-1.2692797616775842E+00
-1.2665808647168317E+00
-1.2665808647167234E+00
-1.2632835650017267E+00
-1.2632835650015497E+00
-1.2593898990827024E+00
-1.2593898990815593E+00
-1.2549019477429055E+00
-1.2549012135206237E+00
-1.2498206905190163E+00
-1.2498206905181417E+00
-1.2441497172623532E+00
-1.2441497172611131E+00
-1.2378916032295622E+00
-1.2378916032288876E+00
-1.2310614118710730E+00
-1.2310381336284328E+00
-1.2236282393369731E+00
-1.2236282393358078E+00
-1.2156316373783005E+00
-1.2156316373780853E+00
-1.2070652632724426E+00
-1.2070652632722485E+00
-1.1979374945854269E+00
-1.1979329270039631E+00
-1.1882484503965558E+00
-1.1882484503965147E+00
-1.1780129482223138E+00
-1.1780129482222612E+00
-1.1672378077171575E+00
-1.1672378077171313E+00
-1.1559339920307981E+00
-1.1559328957304065E+00
-1.1441117941558356E+00
-1.1441117941557917E+00
-1.1317865792138342E+00
-1.1317865792137722E+00
-1.1189736269936335E+00
-1.1189736269936059E+00
-1.1057002572266688E+00
-1.1056822825234096E+00
-1.0919608676636103E+00
-1.0919608676635577E+00
-1.0778074364787806E+00
-1.0778074364787513E+00
-1.0632604472729252E+00
-1.0632604472729212E+00
-1.0483567735696788E+00
-1.0483529625311945E+00
-1.0331324629048850E+00
-1.0331324629048673E+00
-1.0176434516652639E+00
-1.0176434516652200E+00
-1.0019486123950596E+00
-1.0019486123950159E+00
-9.8612194888869453E-01
-9.8612189879497747E-01
-9.7025382854753706E-01
-9.7025382854747522E-01
-9.5445514177882518E-01
-9.5445514177875646E-01
-9.3886147790826191E-01
-9.3886147790821906E-01
-9.2363798894953075E-01
-9.2363749804955975E-01
-9.0898165128482500E-01
-9.0898165128479258E-01
-8.9512427244841375E-01
-8.9512427244834991E-01
-8.8232451413140001E-01
-8.8232451413131319E-01
-8.7622787018944470E-01
-8.7602542014764151E-01
-8.7602542009317264E-01
-8.7542062554565447E-01
-8.7542062552538025E-01
-8.7441973695717568E-01
-8.7441973694803976E-01
-8.7303561080516057E-01
-8.7303186841063996E-01
-8.7127852803666506E-01
-8.7127852803654449E-01
-8.7085505523704831E-01
-8.7085189890868875E-01
-8.6917550079225780E-01
-8.6917550079210948E-01
-8.6675237654312520E-01
-8.6675237654221360E-01
-8.6404444838381178E-01
-8.6404417395632227E-01
-8.6109537111170809E-01
-8.6109537111083068E-01
-8.6096713330587316E-01
-8.6096713330581176E-01
-8.5796045162798806E-01
-8.5796045162671219E-01
-8.5470775568549728E-01
-8.5470775568476054E-01
-8.5286720385989900E-01
-8.5286720385974524E-01
-8.5142565582682528E-01
-8.5141808914978379E-01
-8.4820755177029172E-01
-8.4820755176891816E-01
-8.4666296196452018E-01
-8.4666296196441559E-01
-8.4519400755270113E-01
-8.4519400755246699E-01
-8.4253940355291745E-01
-8.4253940355267165E-01
-8.4234691724344413E-01
-8.4234679100663168E-01
-8.4043500470667787E-01
-8.4043410849130662E-01
-8.3979645718117557E-01
-8.3979645718113016E-01
-8.3910402633026782E-01
-8.3910402633017500E-01
-8.3880161050147306E-01
-8.3880161050139390E-01
-7.2730025045080859E-01
-7.2700939853231206E-01
-7.2700939847805168E-01
-7.2613737630209940E-01
-7.2613737628200870E-01
-7.2468579006735157E-01
-7.2468579005837452E-01
-7.2265815015887924E-01
-7.2265651884264837E-01
-7.2005582056436113E-01
-7.2005582056425976E-01
-7.1688621326885704E-01
-7.1688621326869906E-01
-7.1315468102629143E-01
-7.1315468102536506E-01
-7.0886878641719653E-01
-7.0886853017441398E-01
-7.0403692007449981E-01
-7.0403692007370899E-01
-6.9866967236575694E-01
-6.9866967236459177E-01
-6.9277867966776441E-01
-6.9277867966710538E-01
-6.8642432365729855E-01
-6.8632966262441086E-01
-6.7947998860642767E-01
-6.7947998860512160E-01
-6.7210494433538814E-01
-6.7210494433513424E-01
-6.6427063159243305E-01
-6.6427063159221655E-01
-6.5599876228755793E-01
-6.5599801871345920E-01
-6.4731192024332740E-01
-6.4731192024327699E-01
-6.3823749097916804E-01
-6.3823749097912019E-01
-6.2880413924893674E-01
-6.2880413924891621E-01
-6.1904396525288363E-01
-6.1904377054887361E-01
-6.0899186479125811E-01
-6.0899186479118506E-01
-5.9868686295640983E-01
-5.9868686295630169E-01
-5.8817604531179080E-01
-5.8817604531177359E-01
[...]
Time (sec):           7.896e+01      1.00000   7.896e+01
Objects:              1.698e+03      1.25129   1.501e+03
Flops:                2.561e+09   4492.70973   1.037e+09  1.327e+11
Flops/sec:            3.243e+07   4492.70952   1.313e+07  1.680e+09
MPI Messages:         2.519e+04      5.43974   1.372e+04  1.756e+06
MPI Message Lengths:  3.895e+07      3.75008   1.581e+03  2.776e+09
MPI Reductions:       1.193e+04      2.01828

Flop counting convention: 1 flop = 1 real number operation of type (multiply/divide/add/subtract)
                            e.g., VecAXPY() for real vectors of length N --> 2N flops
                            and VecAXPY() for complex vectors of length N --> 8N flops

Summary of Stages:   ----- Time ------  ----- Flops -----  --- Messages ---  -- Message Lengths --  -- Reductions --
                        Avg     %Total     Avg     %Total   counts   %Total     Avg         %Total   counts   %Total 
 0:      Main Stage: 2.0503e-04   0.0%  0.0000e+00   0.0%  0.000e+00   0.0%  0.000e+00        0.0%  0.000e+00   0.0% 
 1:     siesta_init: 2.8075e+00   3.6%  0.0000e+00   0.0%  0.000e+00   0.0%  0.000e+00        0.0%  0.000e+00   0.0% 
 2:   siesta_forces: 1.4163e+01  17.9%  0.0000e+00   0.0%  0.000e+00   0.0%  0.000e+00        0.0%  0.000e+00   0.0% 
 3:    siesta_solve: 4.5141e-03   0.0%  0.0000e+00   0.0%  0.000e+00   0.0%  0.000e+00        0.0%  0.000e+00   0.0% 
 4:    siesta2qetsc: 6.8357e-02   0.1%  0.0000e+00   0.0%  4.350e+03   0.2%  1.928e-01        0.0%  5.300e+01   0.9% 
 5: qetsc_setup_eps: 2.4931e+00   3.2%  7.8381e+07   0.1%  2.132e+05  12.1%  6.709e+02       42.4%  3.000e+02   5.1% 
 6: qetsc_solve_eps: 4.0511e+01  51.3%  1.3261e+11  99.9%  9.521e+05  54.2%  8.582e+02       54.3%  2.991e+03  50.5% 
 7:   qetsc_eigvals: 1.2525e-02   0.0%  0.0000e+00   0.0%  0.000e+00   0.0%  0.000e+00        0.0%  0.000e+00   0.0% 
 8:   qetsc_density: 4.9249e+00   6.2%  0.0000e+00   0.0%  5.858e+05  33.4%  5.195e+01        3.3%  5.204e+03  87.9% 
10:     siesta_misc: 1.2131e+01  15.4%  0.0000e+00   0.0%  0.000e+00   0.0%  0.000e+00        0.0%  0.000e+00   0.0% 
11:     qetsc_clean: 1.1121e-02   0.0%  0.0000e+00   0.0%  0.000e+00   0.0%  0.000e+00        0.0%  0.000e+00   0.0% 
12:     siesta_move: 7.2234e-05   0.0%  0.0000e+00   0.0%  0.000e+00   0.0%  0.000e+00        0.0%  0.000e+00   0.0% 
13: siesta_analysis: 8.9482e-03   0.0%  0.0000e+00   0.0%  0.000e+00   0.0%  0.000e+00        0.0%  0.000e+00   0.0% 
14:      siesta_end: 1.8287e+00   2.3%  0.0000e+00   0.0%  0.000e+00   0.0%  0.000e+00        0.0%  0.000e+00   0.0% 

------------------------------------------------------------------------------------------------------------------------
See the 'Profiling' chapter of the users' manual for details on interpreting output.
Phase summary info:
   Count: number of times phase was executed
   Time and Flops: Max - maximum over all processors
                   Ratio - ratio of maximum to minimum over all processors
   Mess: number of messages sent
   Avg. len: average message length (bytes)
   Reduct: number of global reductions
   Global: entire computation
   Stage: stages of a computation. Set stages with PetscLogStagePush() and PetscLogStagePop().
      %T - percent time in this phase         %F - percent flops in this phase
      %M - percent messages in this phase     %L - percent message lengths in this phase
      %R - percent reductions in this phase
   Total Mflop/s: 10e-6 * (sum of flops over all processors)/(max time over all processors)
------------------------------------------------------------------------------------------------------------------------
Event                Count      Time (sec)     Flops                             --- Global ---  --- Stage ---   Total
                   Max Ratio  Max     Ratio   Max  Ratio  Mess   Avg len Reduct  %T %F %M %L %R  %T %F %M %L %R Mflop/s
------------------------------------------------------------------------------------------------------------------------

--- Event Stage 0: Main Stage


--- Event Stage 1: siesta_init


--- Event Stage 2: siesta_forces


--- Event Stage 3: siesta_solve


--- Event Stage 4: siesta2qetsc

MatConvert             2 1.0 1.0710e-03 1.0 0.00e+00 0.0 0.0e+00 0.0e+00 0.0e+00  0  0  0  0  0   2  0  0  0  0     0
MatAssemblyBegin      10 1.0 4.5126e-0227.8 0.00e+00 0.0 0.0e+00 0.0e+00 4.0e+01  0  0  0  0  1  48  0  0  0 75     0
MatAssemblyEnd        10 1.0 3.2426e-03 1.0 0.00e+00 0.0 4.4e+03 7.8e+01 1.1e+01  0  0  0  0  0   5  0100100 21     0
VecSet                 3 1.0 1.3434e-05 1.4 0.00e+00 0.0 0.0e+00 0.0e+00 0.0e+00  0  0  0  0  0   0  0  0  0  0     0

--- Event Stage 5: qetsc_setup_eps

MatCholFctrSym         1 1.0 1.1348e-01 1.0 0.00e+00 0.0 0.0e+00 0.0e+00 5.0e+00  0  0  0  0  0   4  0  0  0  2     0
MatCholFctrNum         5 1.0 1.0411e+00 1.0 0.00e+00 0.0 0.0e+00 0.0e+00 0.0e+00  1  0  0  0  0  41  0  0  0  0     0
MatCopy                4 1.0 1.6870e-01 1.0 0.00e+00 0.0 0.0e+00 0.0e+00 2.4e+01  0  0  0  0  0   7  0  0  0  8     0
MatConvert             1 1.0 2.1490e-03 1.1 0.00e+00 0.0 0.0e+00 0.0e+00 0.0e+00  0  0  0  0  0   0  0  0  0  0     0
MatScale              16 1.0 2.5656e-03 3.5 6.55e+05 1.1 0.0e+00 0.0e+00 0.0e+00  0  0  0  0  0   0100  0  0  0 30551
MatAssemblyBegin      29 1.0 1.7687e-0158.0 0.00e+00 0.0 0.0e+00 0.0e+00 7.6e+01  0  0  0  0  1   3  0  0  0 25     0
MatAssemblyEnd        29 1.0 3.6586e-02 1.1 0.00e+00 0.0 9.7e+03 2.7e+02 8.8e+01  0  0  1  0  1   1  0  5  0 29     0
MatGetRow          10304 1.0 1.6205e-01 1.2 0.00e+00 0.0 0.0e+00 0.0e+00 0.0e+00  0  0  0  0  0   6  0  0  0  0     0
MatGetSubMatrice      10 1.0 3.1503e-01 2.0 0.00e+00 0.0 2.0e+05 5.8e+03 2.0e+01  0  0 12 42  0   9  0 95100  7     0
MatZeroEntries         4 1.0 1.7205e-03 1.2 0.00e+00 0.0 0.0e+00 0.0e+00 0.0e+00  0  0  0  0  0   0  0  0  0  0     0
MatAXPY               13 1.0 4.3064e-01 1.0 0.00e+00 0.0 6.1e+03 2.7e+02 8.0e+01  1  0  0  0  1  17  0  3  0 27     0
MatRedundantMat       10 1.0 6.8693e-01 1.2 0.00e+00 0.0 2.1e+05 5.7e+03 1.0e+02  1  0 12 42  2  25  0 97100 35     0
MatMPIConcateSeq      10 1.0 4.9277e-01 1.3 0.00e+00 0.0 3.6e+03 2.7e+02 8.5e+01  0  0  0  0  1  16  0  2  0 28     0
VecSet                10 1.0 6.0143e-05 2.6 0.00e+00 0.0 0.0e+00 0.0e+00 0.0e+00  0  0  0  0  0   0  0  0  0  0     0
EPSSetUp               5 1.0 2.0190e+00 1.0 0.00e+00 0.0 4.9e+04 4.8e+03 2.4e+02  3  0  3  9  4  80  0 23 20 78     0
STSetUp               10 1.0 1.7578e+00 1.0 0.00e+00 0.0 6.1e+03 2.7e+02 1.1e+02  2  0  0  0  2  70  0  3  0 38     0
KSPSetUp               5 1.0 1.1416e-05 1.9 0.00e+00 0.0 0.0e+00 0.0e+00 0.0e+00  0  0  0  0  0   0  0  0  0  0     0
PCSetUp                5 1.0 1.1605e+00 1.0 0.00e+00 0.0 0.0e+00 0.0e+00 5.0e+00  1  0  0  0  0  46  0  0  0  2     0

--- Event Stage 6: qetsc_solve_eps

MatMult             5622 0.0 7.9549e+00 0.0 1.83e+09 0.0 6.3e+05 7.4e+02 0.0e+00  4 73 36 17  0   8 73 67 31  0 12115
MatSolve            2160 0.0 1.8951e+01 0.0 0.00e+00 0.0 3.1e+05 3.4e+03 9.6e+02 11  0 17 37 16  21  0 32 69 32     0
MatCholFctrNum        16 1.8 3.2357e+00 1.8 0.00e+00 0.0 0.0e+00 0.0e+00 0.0e+00  2  0  0  0  0   5  0  0  0  0     0
MatCopy               16 1.8 6.6977e-01 1.8 0.00e+00 0.0 0.0e+00 0.0e+00 5.6e+01  0  0  0  0  1   1  0  0  0  2     0
MatAssemblyBegin      32 1.8 3.1677e-01108.5 0.00e+00 0.0 0.0e+00 0.0e+00 7.5e+01  0  0  0  0  1   0  0  0  0  3     0
MatAssemblyEnd        32 1.8 5.2071e-02 1.8 0.00e+00 0.0 1.1e+04 2.7e+02 1.1e+02  0  0  1  0  2   0  0  1  0  4     0
MatGetRow          35328 1.8 5.5246e-01 2.2 0.00e+00 0.0 0.0e+00 0.0e+00 0.0e+00  0  0  0  0  0   1  0  0  0  0     0
MatZeroEntries        16 1.8 4.6565e-03 1.2 0.00e+00 0.0 0.0e+00 0.0e+00 0.0e+00  0  0  0  0  0   0  0  0  0  0     0
MatAXPY               16 1.8 1.3630e+00 1.8 0.00e+00 0.0 1.1e+04 2.7e+02 1.5e+02  1  0  1  0  3   2  0  1  0  5     0
VecDot               260 0.0 4.4253e-02 0.0 3.82e+05 0.0 0.0e+00 0.0e+00 1.1e+02  0  0  0  0  2   0  0  0  0  4   460
VecCopy              292 0.0 7.2084e-04 0.0 0.00e+00 0.0 0.0e+00 0.0e+00 0.0e+00  0  0  0  0  0   0  0  0  0  0     0
VecSet             190422115.8 4.0386e-021544.8 0.00e+00 0.0 0.0e+00 0.0e+00 0.0e+00  0  0  0  0  0   0  0  0  0  0     0
VecScatterBegin     9942 0.0 6.7595e-01 0.0 0.00e+00 0.0 9.3e+05 1.6e+03 9.4e+02  0  0 53 54 16   1  0 98100 31     0
VecScatterEnd       7782 0.0 9.5709e-01 0.0 0.00e+00 0.0 0.0e+00 0.0e+00 0.0e+00  0  0  0  0  0   1  0  0  0  0     0
VecSetRandom           9 0.0 4.0073e-03 0.0 0.00e+00 0.0 0.0e+00 0.0e+00 0.0e+00  0  0  0  0  0   0  0  0  0  0     0
EPSSetUp               9 1.0 3.4101e+00 1.1 0.00e+00 0.0 1.2e+04 2.6e+02 3.1e+02  4  0  1  0  5   8  0  1  0 10     0
EPSSolve               9 1.0 4.0530e+01 1.0 2.56e+09 0.0 9.5e+05 1.6e+03 3.0e+03 51100 54 54 51 100100100100100  3272
STSetUp               13 1.0 1.3324e+00 1.0 0.00e+00 0.0 4.9e+03 2.7e+02 8.8e+01  2  0  0  0  1   3  0  1  0  3     0
STApply             2160 0.0 2.2031e+01 0.0 7.02e+08 0.0 5.5e+05 2.2e+03 9.6e+02 13 28 31 44 16  25 28 57 81 32  1659
STMatSolve          2160 0.0 1.9258e+01 0.0 0.00e+00 0.0 3.1e+05 3.4e+03 9.6e+02 11  0 17 37 16  22  0 32 69 32     0
KSPSetUp              16 1.8 2.6785e-05 2.6 0.00e+00 0.0 0.0e+00 0.0e+00 0.0e+00  0  0  0  0  0   0  0  0  0  0     0
KSPSolve            2160 0.0 1.9017e+01 0.0 0.00e+00 0.0 3.1e+05 3.4e+03 9.6e+02 11  0 17 37 16  21  0 32 69 32     0
PCSetUp               16 1.8 3.2362e+00 1.8 0.00e+00 0.0 0.0e+00 0.0e+00 0.0e+00  2  0  0  0  0   5  0  0  0  0     0
PCApply             2160 0.0 1.8958e+01 0.0 0.00e+00 0.0 3.1e+05 3.4e+03 9.6e+02 11  0 17 37 16  21  0 32 69 32     0
BVCreate              25 0.0 1.0950e-02 0.0 0.00e+00 0.0 0.0e+00 0.0e+00 1.0e+02  0  0  0  0  2   0  0  0  0  3     0
BVCopy               292 0.0 1.7483e-03 0.0 0.00e+00 0.0 0.0e+00 0.0e+00 0.0e+00  0  0  0  0  0   0  0  0  0  0     0
BVMultVec           3232 0.0 3.9155e-01 0.0 2.74e+08 0.0 0.0e+00 0.0e+00 0.0e+00  0  9  0  0  0   0  9  0  0  0 31346
BVMultInPlace         87 0.0 1.0366e-01 0.0 1.79e+08 0.0 0.0e+00 0.0e+00 0.0e+00  0  9  0  0  0   0  9  0  0  0 109111
BVDotVec            3232 0.0 4.9606e+00 0.0 1.33e+09 0.0 3.7e+05 7.4e+02 1.4e+03  3 51 21 10 24   5 51 38 18 48 13742
BVOrthogonalizeV    1930 0.0 5.3472e+00 0.0 1.60e+09 0.0 3.7e+05 7.4e+02 1.4e+03  3 61 21 10 24   6 61 38 18 48 15043
BVScale             2160 0.0 1.1386e-02 0.0 1.59e+06 0.0 0.0e+00 0.0e+00 0.0e+00  0  0  0  0  0   0  0  0  0  0  7772
BVNormVec            260 0.0 3.7818e-01 0.0 8.49e+07 0.0 2.8e+04 7.4e+02 1.1e+02  0  3  2  1  2   0  3  3  1  4 11165
BVSetRandom            9 0.0 4.1059e-03 0.0 0.00e+00 0.0 0.0e+00 0.0e+00 0.0e+00  0  0  0  0  0   0  0  0  0  0     0
DSSolve               80 0.0 3.6176e-01 0.0 0.00e+00 0.0 0.0e+00 0.0e+00 0.0e+00  0  0  0  0  0   0  0  0  0  0     0
DSVectors           2733 0.0 6.3493e-03 0.0 0.00e+00 0.0 0.0e+00 0.0e+00 0.0e+00  0  0  0  0  0   0  0  0  0  0     0
DSOther               87 0.0 1.3297e-02 0.0 0.00e+00 0.0 0.0e+00 0.0e+00 0.0e+00  0  0  0  0  0   0  0  0  0  0     0

--- Event Stage 7: qetsc_eigvals


--- Event Stage 8: qetsc_density

VecCopy             3456 1.0 8.0078e-03 1.1 0.00e+00 0.0 0.0e+00 0.0e+00 0.0e+00  0  0  0  0  0   0  0  0  0  0     0
VecSet                 1 1.0 6.6175e-06 1.4 0.00e+00 0.0 0.0e+00 0.0e+00 0.0e+00  0  0  0  0  0   0  0  0  0  0     0
VecScatterBegin     6912 1.0 6.9294e-01 1.1 0.00e+00 0.0 4.4e+05 1.8e+02 3.5e+03  1  0 25  3 58  14  0 75 89 66     0
VecScatterEnd       3456 1.0 6.1263e-01 1.1 0.00e+00 0.0 0.0e+00 0.0e+00 0.0e+00  1  0  0  0  0  12  0  0  0  0     0
BVCopy              3456 1.0 2.4444e-02 1.1 0.00e+00 0.0 0.0e+00 0.0e+00 0.0e+00  0  0  0  0  0   0  0  0  0  0     0

--- Event Stage 9: Unknown


--- Event Stage 10: siesta_misc


--- Event Stage 11: qetsc_clean


--- Event Stage 12: siesta_move


--- Event Stage 13: siesta_analysis


--- Event Stage 14: siesta_end

------------------------------------------------------------------------------------------------------------------------

Memory usage is given in bytes:

Object Type          Creations   Destructions     Memory  Descendants' Mem.
Reports information only for process 0.

--- Event Stage 0: Main Stage


--- Event Stage 1: siesta_init


--- Event Stage 2: siesta_forces


--- Event Stage 3: siesta_solve


--- Event Stage 4: siesta2qetsc

              Matrix     9              0            0     0.
              Vector    19              1         1648     0.
      Vector Scatter     4              0            0     0.
           Index Set     4              4         7552     0.

--- Event Stage 5: qetsc_setup_eps

              Matrix    31             15      6332352     0.
              Vector   107             63       258448     0.
      Vector Scatter    18              9         9648     0.
           Index Set    61             54        77664     0.
          EPS Solver     2              0            0     0.
  Spectral Transform     2              0            0     0.
       Krylov Solver     2              0            0     0.
      Preconditioner     2              0            0     0.
       Basis Vectors     7              4         4224     0.
         PetscRandom     1              0            0     0.
              Region     2              0            0     0.
       Direct Solver     2              0            0     0.

--- Event Stage 6: qetsc_solve_eps

              Matrix    27             27     11652084     0.
              Vector   117            117       492120     0.
      Vector Scatter    18             18        19296     0.
           Index Set    36             36        67968     0.
       Basis Vectors     9              9         9504     0.

--- Event Stage 7: qetsc_eigvals


--- Event Stage 8: qetsc_density

              Vector    10              9        67824     0.
      Vector Scatter   289            288       310392     0.
           Index Set   577            577       505360     0.

--- Event Stage 9: Unknown


--- Event Stage 10: siesta_misc


--- Event Stage 11: qetsc_clean

              Matrix     0             25     10364588     0.
              Vector     0             63       810160     0.
      Vector Scatter     0             14        14176     0.
           Index Set     0              7         5488     0.
          EPS Solver     0              2        25144     0.
  Spectral Transform     0              2         1632     0.
       Krylov Solver     0              2         2336     0.
      Preconditioner     0              2         1952     0.
       Basis Vectors     0              3         3168     0.
         PetscRandom     0              1          638     0.
              Region     0              2         1312     0.
       Direct Solver     0              2       109992     0.

--- Event Stage 12: siesta_move


--- Event Stage 13: siesta_analysis


--- Event Stage 14: siesta_end

              Viewer     1              0            0     0.
========================================================================================================================
Average time to get PetscTime(): 1.24e-07
Average time for MPI_Barrier(): 2.97563e-06
Average time for zero size MPI_Send(): 1.2409e-05
#PETSc Option Table entries:
-eps_interval -2.3,0.
-eps_krylovschur_detect_zeros 0
-eps_krylovschur_partitions 32
-ioptbin 7
-ioptdensity 0
-ioptinertia 1
-ioptleft 2
-log_view
-mat_mumps_cntl_3 1e-12
-mat_mumps_icntl_13 1
-mat_mumps_icntl_23 0
-mat_mumps_icntl_24 1
-mat_mumps_icntl_7 5
-mat_type mpisbaij
-roptbuffer 0.01
-roptdiff 0.02
-writeeigs 1
#End of PETSc Option Table entries
Compiled with FORTRAN kernels
Compiled with full precision matrices (default)
sizeof(short) 2 sizeof(int) 4 sizeof(long) 8 sizeof(void*) 8 sizeof(PetscScalar) 8 sizeof(PetscInt) 4
Configure options: --known-has-attribute-aligned=1 --download-chaco=0 --download-cmake=0 --download-hypre=0 --download-metis=1 --download-mumps=1 --download-parmetis=1 --download-plapack=0 --download-prometheus=0 --download-ptscotch=1 --download-spai=0 --download-spooles=0 --download-superlu=0 --download-superlu_dist=0 --download-triangle=0 --known-bits-per-byte=8 --known-level1-dcache-assoc=0 --known-level1-dcache-linesize=32 --known-level1-dcache-size=32768 --known-memcmp-ok=1 --known-mpi-c-double-complex=1 --known-mpi-int64_t=1 --known-mpi-long-double=1 --known-mpi-shared-libraries=0 --known-sdot-returns-double=0 --known-sizeof-MPI_Comm=4 --known-sizeof-MPI_Fint=4 --known-sizeof-char=1 --known-sizeof-double=8 --known-sizeof-float=4 --known-sizeof-int=4 --known-sizeof-long-long=8 --known-sizeof-long=8 --known-sizeof-short=2 --known-sizeof-size_t=8 --known-sizeof-void-p=8 --known-snrm2-returns-double=0 --with-batch=1 --with-blacs-include=/soft/libraries/alcf/current/xl/SCALAPACK/ --with-blacs-lib=/soft/libraries/alcf/current/xl/SCALAPACK/lib/libscalapack.a --with-blas-lapack-lib="-L/soft/libraries/alcf/current/xl/LAPACK/lib -llapack -L/soft/libraries/alcf/current/xl/BLAS/lib -lblas" --with-cc=mpixlc_r --with-clib-autodetect=0 --with-cxx=mpixlcxx_r --with-cxxlib-autodetect=0 --with-debugging=0 --with-fc="mpixlf77_r -qnosave" --with-fortran-kernels=1 --with-fortranlib-autodetect=0 --with-is-color-value-type=short --with-scalapack-include=/soft/libraries/alcf/current/xl/SCALAPACK/ --with-scalapack-lib=/soft/libraries/alcf/current/xl/SCALAPACK/lib/libscalapack.a --with-shared-libraries=0 --with-x=0 -COPTFLAGS=" -g -O3 -qhot=level=0 -qsimd=auto -qmaxmem=-1 -qstrict -qstrict_induction" -CXXOPTFLAGS="  -g -O3 -qhot=level=0 -qsimd=auto -qmaxmem=-1 -qstrict -qstrict_induction" -FOPTFLAGS=" -g -O3 -qhot=level=0 -qsimd=auto -qmaxmem=-1 -qstrict -qstrict_induction" LIBS="-lmpichcxx-gcc -lmpichf77-gcc -L/soft/compilers/ibmcmp-feb2015/vacpp/bg/12.1/bglib64 -libmc++ -L/soft/compilers/ibmcmp-feb2015/xlf/bg/14.1/bglib64 -lxlf90_r -lxlomp_ser -lxlfmath" PETSC_ARCH=arch-xl
-----------------------------------------
Libraries compiled on Sat Aug 20 04:19:47 2016 on vestalac2 
Machine characteristics: Linux-2.6.32-573.18.1.el6.ppc64-ppc64-with-redhat-6.7-Santiago
Using PETSc directory: /home/keceli/scratch2/petsc
Using PETSc arch: arch-xl
-----------------------------------------

Using C compiler: mpixlc_r   -g -O3 -qhot=level=0 -qsimd=auto -qmaxmem=-1 -qstrict -qstrict_induction  ${COPTFLAGS} ${CFLAGS}
Using Fortran compiler: mpixlf77_r -qnosave  -g -O3 -qhot=level=0 -qsimd=auto -qmaxmem=-1 -qstrict -qstrict_induction   ${FOPTFLAGS} ${FFLAGS} 
-----------------------------------------

Using include paths: -I/home/keceli/scratch2/petsc/arch-xl/include -I/home/keceli/scratch2/petsc/include -I/home/keceli/scratch2/petsc/include -I/home/keceli/scratch2/petsc/arch-xl/include -I/bgsys/drivers/V1R2M4/ppc64/comm/include -I/bgsys/drivers/V1R2M4/ppc64/comm/lib/xl -I/bgsys/drivers/V1R2M4/ppc64 -I/bgsys/drivers/V1R2M4/ppc64/comm/sys/include -I/bgsys/drivers/V1R2M4/ppc64/spi/include -I/bgsys/drivers/V1R2M4/ppc64/spi/include/kernel/cnk
-----------------------------------------

Using C linker: mpixlc_r
Using Fortran linker: mpixlf77_r -qnosave
Using libraries: -Wl,-rpath,/home/keceli/scratch2/petsc/arch-xl/lib -L/home/keceli/scratch2/petsc/arch-xl/lib -lpetsc -Wl,-rpath,/home/keceli/scratch2/petsc/arch-xl/lib -L/home/keceli/scratch2/petsc/arch-xl/lib -lcmumps -ldmumps -lsmumps -lzmumps -lmumps_common -lpord -Wl,-rpath,/soft/libraries/alcf/current/xl/SCALAPACK/lib -L/soft/libraries/alcf/current/xl/SCALAPACK/lib -lscalapack -L/soft/libraries/alcf/current/xl/LAPACK/lib -llapack -L/soft/libraries/alcf/current/xl/BLAS/lib -lblas -lparmetis -lmetis -lptesmumps -lptscotch -lptscotcherr -lscotch -lscotcherr -lrt -lm -lpthread -ldl -lmpichcxx-gcc -lmpichf77-gcc -L/soft/compilers/ibmcmp-feb2015/vacpp/bg/12.1/bglib64 -libmc++ -L/soft/compilers/ibmcmp-feb2015/xlf/bg/14.1/bglib64 -lxlf90_r -lxlomp_ser -lxlfmath
-----------------------------------------

