Siesta Version: siesta-trunk-492
Architecture  : x86_64-unknown-linux-gnu--unknown
Compiler flags: ftn -g -O3  -ffast-math -funroll-loops -I/global/homes/k/keceli/petsc/includee -I/global/homes/k/keceli/petsc/arch-cori-gcc/include -I/global/homes/k/keceli/slepcfork/arch-cori-gcc/include -I/global/homes/k/keceli/slepcfork/include
PP flags      : -DMPI -DFC_HAVE_FLUSH -DFC_HAVE_ABORT 
PARALLEL version

* Running on   64 nodes in parallel
>> Start of run:   7-DEC-2016  11:08:48

                           ***********************       
                           *  WELCOME TO SIESTA  *       
                           ***********************       
WARNING: Siesta is reading its input from file INPUT_DEBUG

reinit: -----------------------------------------------------------------------
reinit: System Name: liquid_D2O_64
reinit: -----------------------------------------------------------------------
reinit: System Label: D2O_64                                                      
reinit: -----------------------------------------------------------------------

initatom: Reading input for the pseudopotentials and atomic orbitals ----------
Species number:   1 Atomic number:    8 Label: O
Species number:   2 Atomic number:    1 Label: H

Ground state valence configuration:   2s02  2p04
Reading pseudopotential information in formatted form from O.psf

Valence configuration for pseudopotential generation:
2s( 2.00) rc: 1.14
2p( 4.00) rc: 1.14
3d( 0.00) rc: 1.14
4f( 0.00) rc: 1.14
Ground state valence configuration:   1s01
Reading pseudopotential information in formatted form from H.psf

Valence configuration for pseudopotential generation:
1s( 0.60) rc: 1.25
2p( 0.00) rc: 1.25
3d( 0.00) rc: 1.25
4f( 0.00) rc: 1.25
For O, standard SIESTA heuristics set lmxkb to 3
 (one more than the basis l, including polarization orbitals).
Use PS.lmax or PS.KBprojectors blocks to override.
For H, standard SIESTA heuristics set lmxkb to 2
 (one more than the basis l, including polarization orbitals).
Use PS.lmax or PS.KBprojectors blocks to override.

<basis_specs>
===============================================================================
O                    Z=   8    Mass=  16.000        Charge=-0.24233    
Lmxo=2 Lmxkb= 3    BasisType=split      Semic=F
L=0  Nsemic=0  Cnfigmx=2
          n=1  nzeta=2  polorb=0
            splnorm:   0.15000    
               vcte:    23.361    
               rinn:    3.3972    
               qcoe:    0.0000    
               qyuk:    0.0000    
               qwid:   0.10000E-01
                rcs:    4.5077      2.6407    
            lambdas:    1.0000      1.0000    
L=1  Nsemic=0  Cnfigmx=2
          n=1  nzeta=2  polorb=0
            splnorm:   0.15000    
               vcte:    2.7833    
               rinn:    5.1425    
               qcoe:    0.0000    
               qyuk:    0.0000    
               qwid:   0.10000E-01
                rcs:    6.1500      2.5936    
            lambdas:    1.0000      1.0000    
L=2  Nsemic=0  Cnfigmx=3
          n=1  nzeta=1  polorb=0
            splnorm:   0.15000    
               vcte:    63.982    
               rinn:   0.16104    
               qcoe:    0.0000    
               qyuk:    0.0000    
               qwid:   0.10000E-01
                rcs:    3.5440    
            lambdas:    1.0000    
-------------------------------------------------------------------------------
L=0  Nkbl=1  erefs: 0.17977+309
L=1  Nkbl=1  erefs: 0.17977+309
L=2  Nkbl=1  erefs: 0.17977+309
L=3  Nkbl=1  erefs: 0.17977+309
===============================================================================
</basis_specs>

atom: Called for O                     (Z =   8)

read_vps: Pseudopotential generation method:
read_vps: ATM3      Troullier-Martins                       
Total valence charge:    6.00000

read_vps: Pseudopotential includes a core correction:
read_vps: Pseudo-core for xc-correction

xc_check: Exchange-correlation functional:
xc_check: GGA Perdew, Burke & Ernzerhof 1996
V l=0 = -2*Zval/r beyond r=  1.1278
V l=1 = -2*Zval/r beyond r=  1.1278
V l=2 = -2*Zval/r beyond r=  1.1278
V l=3 = -2*Zval/r beyond r=  1.1278
All V_l potentials equal beyond r=  1.1278
This should be close to max(r_c) in ps generation
All pots = -2*Zval/r beyond r=  1.1278

VLOCAL1: 99.0% of the norm of Vloc inside     34.126 Ry
VLOCAL1: 99.9% of the norm of Vloc inside     77.774 Ry
atom: Maximum radius for 4*pi*r*r*local-pseudopot. charge    1.37759
atom: Maximum radius for r*vlocal+2*Zval:    1.18566
GHOST: No ghost state for L =  0
GHOST: No ghost state for L =  1
GHOST: No ghost state for L =  2
GHOST: No ghost state for L =  3

KBgen: Kleinman-Bylander projectors: 
   l= 0   rc=  1.262145   el= -1.757696   Ekb=  9.253654   kbcos=  0.328369
   l= 1   rc=  1.262145   el= -0.664256   Ekb= -7.897175   kbcos= -0.393093
   l= 2   rc=  1.343567   el=  0.002031   Ekb= -1.922379   kbcos= -0.003517
   l= 3   rc=  1.394919   el=  0.003153   Ekb= -0.738278   kbcos= -0.000358

KBgen: Total number of  Kleinman-Bylander projectors:   16
atom: -------------------------------------------------------------------------

atom: SANKEY-TYPE ORBITALS:
atom: Selected multiple-zeta basis: split     

atom: basis set generated (by rescaling the valence charge)
atom: for an anion of charge  -0.2423

SPLIT: Orbitals with angular momentum L= 0

SPLIT: Basis orbitals for state 2s

   izeta = 1
                 lambda =    1.000000
                     rc =    4.574469
                 energy =   -1.754694
                kinetic =    1.490893
    potential(screened) =   -3.245588
       potential(ionic) =  -11.054474

   izeta = 2
                 rmatch =    2.639108
              splitnorm =    0.147036
                 energy =   -1.549986
                kinetic =    2.329570
    potential(screened) =   -3.879556
       potential(ionic) =  -12.328390

SPLIT: Orbitals with angular momentum L= 1

SPLIT: Basis orbitals for state 2p

   izeta = 1
                 lambda =    1.000000
                     rc =    6.174996
                 energy =   -0.657397
                kinetic =    4.283704
    potential(screened) =   -4.941101
       potential(ionic) =  -12.288569

   izeta = 2
                 rmatch =    2.639108
              splitnorm =    0.214885
                 energy =   -0.410839
                kinetic =    7.128014
    potential(screened) =   -7.538853
       potential(ionic) =  -16.113011

SPLIT: Orbitals with angular momentum L= 2

SPLIT: Basis orbitals for state 3d

   izeta = 1
                 lambda =    1.000000
                     rc =    3.562532
                 energy =    3.658838
                kinetic =    6.488135
    potential(screened) =   -2.829297
       potential(ionic) =  -10.001422
atom: Total number of Sankey-type orbitals: 13

atm_pop: Valence configuration (for local Pseudopot. screening):
 2s( 2.00)                                                            
 2p( 4.00)                                                            
 3d( 0.00)                                                            
Vna: chval, zval:    6.00000   6.00000

Vna:  Cut-off radius for the neutral-atom potential:   6.174996
comcore: Pseudo-core radius Rcore=  1.377587

atom: _________________________________________________________________________

<basis_specs>
===============================================================================
H                    Z=   1    Mass=  1.0100        Charge= 0.46527    
Lmxo=1 Lmxkb= 2    BasisType=split      Semic=F
L=0  Nsemic=0  Cnfigmx=1
          n=1  nzeta=2  polorb=0
            splnorm:   0.15000    
               vcte:    99.931    
               rinn:    2.5993    
               qcoe:    0.0000    
               qyuk:    0.0000    
               qwid:   0.10000E-01
                rcs:    4.2036      1.8446    
            lambdas:    1.0000      1.0000    
L=1  Nsemic=0  Cnfigmx=2
          n=1  nzeta=1  polorb=0
            splnorm:   0.15000    
               vcte:    24.565    
               rinn:    2.2023    
               qcoe:    0.0000    
               qyuk:    0.0000    
               qwid:   0.10000E-01
                rcs:    3.5282    
            lambdas:    1.0000    
-------------------------------------------------------------------------------
L=0  Nkbl=1  erefs: 0.17977+309
L=1  Nkbl=1  erefs: 0.17977+309
L=2  Nkbl=1  erefs: 0.17977+309
===============================================================================
</basis_specs>

atom: Called for H                     (Z =   1)

read_vps: Pseudopotential generation method:
read_vps: ATM 3.2.2 Troullier-Martins                       
Total valence charge:    0.60000

atom: Pseudopotential generated from an ionic configuration
atom: with net charge 0.40

xc_check: Exchange-correlation functional:
xc_check: GGA Perdew, Burke & Ernzerhof 1996
xc_check: WARNING: Pseudopotential generated with GGA revPBE functional
V l=0 = -2*Zval/r beyond r=  1.2343
V l=1 = -2*Zval/r beyond r=  1.2189
V l=2 = -2*Zval/r beyond r=  1.2189
All V_l potentials equal beyond r=  1.2343
This should be close to max(r_c) in ps generation
All pots = -2*Zval/r beyond r=  1.2343

VLOCAL1: 99.0% of the norm of Vloc inside     28.493 Ry
VLOCAL1: 99.9% of the norm of Vloc inside     64.935 Ry
atom: Maximum radius for 4*pi*r*r*local-pseudopot. charge    1.45251
atom: Maximum radius for r*vlocal+2*Zval:    1.21892
GHOST: No ghost state for L =  0
GHOST: No ghost state for L =  1
GHOST: No ghost state for L =  2

KBgen: Kleinman-Bylander projectors: 
   l= 0   rc=  1.364359   el= -0.835481   Ekb= -2.050473   kbcos= -0.374935
   l= 1   rc=  1.434438   el= -0.083696   Ekb= -0.439790   kbcos= -0.040392
   l= 2   rc=  1.470814   el= -0.018512   Ekb= -0.135383   kbcos= -0.004767

KBgen: Total number of  Kleinman-Bylander projectors:    9
atom: -------------------------------------------------------------------------

atom: SANKEY-TYPE ORBITALS:
atom: Selected multiple-zeta basis: split     

atom: basis set generated (by rescaling the valence charge)
atom: for a cation of charge   0.4653

SPLIT: Orbitals with angular momentum L= 0

SPLIT: Basis orbitals for state 1s

   izeta = 1
                 lambda =    1.000000
                     rc =    4.260636
                 energy =   -0.844786
                kinetic =    1.360018
    potential(screened) =   -2.204804
       potential(ionic) =   -2.290935

   izeta = 2
                 rmatch =    1.865767
              splitnorm =    0.575404
                 energy =    0.510436
                kinetic =    4.363202
    potential(screened) =   -3.852766
       potential(ionic) =   -3.849391

SPLIT: Orbitals with angular momentum L= 1

SPLIT: Basis orbitals for state 2p

   izeta = 1
                 lambda =    1.000000
                     rc =    3.576223
                 energy =    0.852340
                kinetic =    2.004908
    potential(screened) =   -1.152567
       potential(ionic) =   -1.298457
atom: Total number of Sankey-type orbitals:  5

atm_pop: Valence configuration (for local Pseudopot. screening):
 1s( 1.00)                                                            
 2p( 0.00)                                                            
Vna: chval, zval:    1.00000   1.00000

Vna:  Cut-off radius for the neutral-atom potential:   4.260636

atom: _________________________________________________________________________

prinput: Basis input ----------------------------------------------------------

PAO.BasisType split     

%block ChemicalSpeciesLabel
    1    8 O                       # Species index, atomic number, species label
    2    1 H                       # Species index, atomic number, species label
%endblock ChemicalSpeciesLabel

%block PAO.Basis                 # Define Basis set
O                     3  -0.242            # Label, l-shells, ionic net charge
 n=2   0   2                         # n, l, Nzeta 
   4.574      2.639   
   1.000      1.000   
 n=2   1   2                         # n, l, Nzeta 
   6.175      2.639   
   1.000      1.000   
 n=3   2   1                         # n, l, Nzeta 
   3.563   
   1.000   
H                     2   0.465            # Label, l-shells, ionic net charge
 n=1   0   2                         # n, l, Nzeta 
   4.261      1.866   
   1.000      1.000   
 n=2   1   1                         # n, l, Nzeta 
   3.576   
   1.000   
%endblock PAO.Basis

prinput: ----------------------------------------------------------------------

coor:   Atomic-coordinates input format  =     Cartesian coordinates
coor:                                          (in Angstroms)

siesta: Atomic coordinates (Bohr) and species
siesta:      1.17163  22.71452   5.02667  1        1
siesta:      0.86927  23.39482   6.67074  2        2
siesta:      2.04091  24.03733   4.13850  2        3
siesta:     17.83902  10.69585   0.22677  1        4
siesta:     18.93506  11.77300   1.15273  2        5
siesta:     17.46108  11.62182  -1.28501  2        6
siesta:     17.27210   2.15429  11.82969  1        7
siesta:     18.00910   0.81258  12.77455  2        8
siesta:     15.51466   2.05980  12.18874  2        9
siesta:     18.29256  18.36815  10.43129  1       10
siesta:     17.63115  17.68784   8.90061  2       11
siesta:     17.00754  17.99020  11.67851  2       12
siesta:      4.66763   5.70698   6.59515  1       13
siesta:      5.08337   5.80146   4.83770  2       14
siesta:      2.87238   5.80146   6.65184  2       15
siesta:     20.65471   8.63605  15.42017  1       16
siesta:     19.29411   7.54001  15.89260  2       17
siesta:     21.14604   8.08803  13.77611  2       18
siesta:     15.85481   6.33059   6.97309  1       19
siesta:     16.59180   7.78567   6.21720  2       20
siesta:     17.08313   5.02667   6.70853  2       21
siesta:     10.33681  13.36037   4.87550  1       22
siesta:     11.22498  11.94307   4.17630  2       23
siesta:      8.59826  12.94463   4.66763  2       24
siesta:      1.71965   9.69430  20.78700  1       25
siesta:      1.54958   9.01400  19.12404  2       26
siesta:      2.83459  11.11159  20.57913  2       27
siesta:      5.27234  13.66273  18.80278  1       28
siesta:      6.25500  13.17140  17.36659  2       29
siesta:      3.81725  14.49421  18.08469  2       30
siesta:      9.03289  23.11136   1.17163  1       31
siesta:      9.42974  24.56645   2.17319  2       32
siesta:      9.41084  21.69406   2.24877  2       33
siesta:     15.91150   6.06602  15.85481  1       34
siesta:     14.79656   7.38883  15.30679  2       35
siesta:     16.04378   4.96998  14.41862  2       36
siesta:     22.97908  15.21230  11.81079  1       37
siesta:     21.18384  15.32568  11.60292  2       38
siesta:     23.54600  14.17295  10.45019  2       39
siesta:      6.74632   7.59670   0.83148  1       40
siesta:      8.22031   6.68963   0.35905  2       41
siesta:      5.63139   7.44552  -0.60471  2       42
siesta:     11.39505  11.03600  19.01065  1       43
siesta:     12.83125  10.80924  20.06890  2       44
siesta:     12.01866  10.80924  17.32880  2       45
siesta:     13.22809  13.88949   9.37305  1       46
siesta:     11.92418  13.85170   8.12583  2       47
siesta:     12.85014  15.34458  10.39350  2       48
siesta:      1.02045   0.30236  10.28011  1       49
siesta:      1.79524   1.64406  11.18718  2       50
siesta:      1.73855  -1.19053  10.97931  2       51
siesta:      7.35104  21.59958   8.78723  1       52
siesta:      6.19830  20.73030   9.88327  2       53
siesta:      8.86282  20.61692   8.84392  2       54
siesta:     11.84859  23.05467  14.53200  1       55
siesta:     13.03912  22.41216  15.74142  2       56
siesta:     10.37460  23.45151  15.51466  2       57
siesta:      3.30702   4.36527  12.43440  1       58
siesta:      2.83459   5.68808  13.58714  2       59
siesta:      3.91173   5.23454  10.97931  2       60
siesta:     11.56513  19.02955  10.11004  1       61
siesta:     11.73520  20.23897  11.45174  2       62
siesta:     12.77455  19.55867   8.88172  2       63
siesta:     15.53355   2.39995  21.37281  1       64
siesta:     14.47531   0.98266  20.95707  2       65
siesta:     15.87371   3.21254  19.80434  2       66
siesta:      1.71965  13.64383   7.25655  1       67
siesta:      2.43775  15.30679   7.12427  2       68
siesta:      2.77790  12.62338   6.21720  2       69
siesta:      7.02978  16.21386  12.03756  1       70
siesta:      8.57936  17.02644  11.62182  2       71
siesta:      5.78256  17.51777  11.96197  2       72
siesta:     10.14783  18.65160   3.60938  1       73
siesta:     11.77300  19.33191   4.04402  2       74
siesta:     10.20453  16.95085   4.23299  2       75
siesta:      3.34482  19.97441  20.50354  1       76
siesta:      2.36216  18.76499  19.57757  2       77
siesta:      4.81880  19.04845  21.03266  2       78
siesta:     12.20764  22.18539  20.93817  1       79
siesta:     11.48954  20.73030  20.14449  2       80
siesta:     10.96042  22.69562  22.16650  2       81
siesta:     21.27832  15.30679  20.46574  1       82
siesta:     21.90193  14.75877  22.07201  2       83
siesta:     21.44840  17.12093  20.50354  2       84
siesta:     11.22498  18.31145  17.59336  1       85
siesta:      9.82658  19.12404  16.79967  2       86
siesta:     10.48798  17.30990  18.91617  2       87
siesta:     12.07535   2.68341   4.40306  1       88
siesta:     13.34147   3.77945   5.10226  2       89
siesta:     10.71475   2.72121   5.59359  2       90
siesta:     21.63737   6.93530   0.75589  1       91
siesta:     22.54444   8.06913  -0.32125  2       92
siesta:     19.93662   7.52111   0.71810  2       93
siesta:     22.54444   5.93374   5.97154  1       94
siesta:     22.67672   6.59515   4.28968  2       95
siesta:     22.07201   4.19519   5.74477  2       96
siesta:     18.97286   0.73699   1.11494  1       97
siesta:     17.61225   1.36060   0.09449  2       98
siesta:     19.80434   2.22988   1.71965  2       99
siesta:     19.31301  20.48464   5.19675  1      100
siesta:     21.07045  20.71141   5.55580  2      101
siesta:     19.10514  21.16494   3.53379  2      102
siesta:     20.23897  14.58869   2.26767  1      103
siesta:     19.82323  13.92729   3.89284  2      104
siesta:     19.67206  16.30834   2.34326  2      105
siesta:      8.63605   3.25033   8.52267  1      106
siesta:      8.27700   1.49288   8.74944  2      107
siesta:      7.10537   3.94953   7.89906  2      108
siesta:     22.33657  19.67206   0.24566  1      109
siesta:     21.52399  21.20274  -0.32125  2      110
siesta:     24.03733  20.16339   0.60471  2      111
siesta:     16.79967  19.69095  21.88304  1      112
siesta:     15.08002  20.18228  21.97752  2      113
siesta:     16.81857  17.95241  22.37437  2      114
siesta:      6.17941  20.59802  16.13827  1      115
siesta:      6.46287  22.27988  15.53355  2      116
siesta:      5.40462  20.82479  17.76343  2      117
siesta:      3.06136  15.70363   0.58582  1      118
siesta:      2.05980  17.00754  -0.18897  2      119
siesta:      3.64717  16.45952   2.13539  2      120
siesta:     22.56334   3.06136  21.22163  1      121
siesta:     22.26098   4.61093  22.07201  2      122
siesta:     20.91928   2.36216  20.93817  2      123
siesta:      3.06136   2.32436   1.22832  1      124
siesta:      2.09760   1.98421  -0.26456  2      125
siesta:      4.78101   2.15429   0.73699  2      126
siesta:      5.57469  11.88638   3.38261  1      127
siesta:      5.66918  10.26122   2.60782  2      128
siesta:      4.85660  12.94463   2.11649  2      129
siesta:     14.28634  20.80589   5.36682  1      130
siesta:     16.06268  21.03266   5.17785  2      131
siesta:     13.58714  22.46885   5.19675  2      132
siesta:     13.60603  15.93040   1.00156  1      133
siesta:     13.41706  14.17295   1.32281  2      134
siesta:     12.03756  16.66739   1.51178  2      135
siesta:     17.30990  11.77300  18.23586  1      136
siesta:     18.27366  10.75255  17.08313  2      137
siesta:     18.23586  13.32257  18.34925  2      138
siesta:     12.20764   5.55580  11.03600  1      139
siesta:     13.37927   5.85815   9.67540  2      140
siesta:     10.77144   4.78101  10.22342  2      141
siesta:      8.74944  16.34614  21.44840  1      142
siesta:      7.38883  15.25010  20.95707  2      143
siesta:     10.11004  15.23120  21.82635  2      144
siesta:     16.59180  21.63737  17.08313  1      145
siesta:     16.96975  20.74920  18.59491  2      146
siesta:     18.19807  21.82635  16.25165  2      147
siesta:     20.16339  21.80745  13.58714  1      148
siesta:     21.48619  22.37437  12.49109  2      149
siesta:     19.29411  20.54133  12.62338  2      150
siesta:     15.32568  17.53667  14.53200  1      151
siesta:     14.38082  16.66739  15.79812  2      152
siesta:     15.89260  19.04845  15.34458  2      153
siesta:     17.72564  12.41551   7.33214  1      154
siesta:     16.25165  12.94463   8.25811  2      155
siesta:     18.80278  11.65961   8.56046  2      156
siesta:      7.57780   2.68341  14.73987  1      157
siesta:      8.88172   3.53379  13.81390  2      158
siesta:      6.02823   3.23143  13.96508  2      159
siesta:     19.25632   1.88973   7.14317  1      160
siesta:     18.63271   1.96532   8.84392  2      161
siesta:     19.33191   0.13228   6.76522  2      162
siesta:     22.03422   9.05179  10.01555  1      163
siesta:     22.05311   7.65339   8.86282  2      164
siesta:     23.58379   9.92107   9.67540  2      165
siesta:      6.91640  10.99821  14.11626  1      166
siesta:      6.33059  12.32102  13.02022  2      167
siesta:      8.73054  11.07380  13.96508  2      168
siesta:     11.35726   5.08337  22.73341  1      169
siesta:     12.83125   4.10071  22.35547  2      170
siesta:     10.58247   5.36682  21.12715  2      171
siesta:     12.26433   9.92107  13.94618  1      172
siesta:     11.96197   8.63605  12.71786  2      173
siesta:     12.96353  11.30057  13.00132  2      174
siesta:     12.98242  10.03445   1.77634  1      175
siesta:     12.58558   8.33370   1.30391  2      176
siesta:     14.75877  10.18563   1.49288  2      177
siesta:      8.37149   6.36838  18.97286  1      178
siesta:      8.44708   5.31013  17.49887  2      179
siesta:      9.25966   7.88016  18.48153  2      180
siesta:      2.83459  19.25632  12.32102  1      181
siesta:      1.75745  17.83902  11.98087  2      182
siesta:      3.13695  19.19963  14.09736  2      183
siesta:      2.66451   8.14472  15.70363  1      184
siesta:      4.42196   8.61715  15.68473  2      185
siesta:      1.77634   9.73209  15.68473  2      186
siesta:      0.96376  16.06268  16.61070  1      187
siesta:     -0.41574  15.77922  17.74454  2      188
siesta:      0.26456  15.72253  14.96664  2      189
siesta:      4.23299  18.48153   5.36682  1      190
siesta:      5.89595  19.08624   4.96998  2      191
siesta:      3.15584  19.91772   5.15895  2      192

siesta: System type = bulk      

initatomlists: Number of atoms, orbitals, and projectors:    192  1472  2176

siesta: ******************** Simulation parameters ****************************
siesta:
siesta: The following are some of the parameters of the simulation.
siesta: A complete list of the parameters used, including default values,
siesta: can be found in file out.fdf
siesta:
redata: Non-Collinear-spin run           =     F
redata: SpinPolarized (Up/Down) run      =     F
redata: Number of spin components        =     1
redata: Long output                      =     F
redata: Number of Atomic Species         =        2
redata: Charge density info will appear in .RHO file
redata: Write Mulliken Pop.              =     NO
redata: Mesh Cutoff                      =   150.0000  Ry
redata: Net charge of the system         =     0.0000 |e|
redata: Min. number of SCF Iter          =        0
redata: Max. number of SCF Iter          =       50
redata: Mix DM or H after convergence    =     F
redata: Recompute H after scf cycle      =     F
redata: Performing Pulay mixing using    =     3 iterations
redata: Mix DM in first SCF step ?       =     F
redata: Write Pulay info on disk?        =     F
redata: Discard 1st Pulay DM after  kick =     F
redata: New DM Mixing Weight             =     0.3000
redata: New DM Occupancy tolerance       = 0.000000000001
redata: No kicks to SCF
redata: DM Mixing Weight for Kicks       =     0.5000
redata: DM Tolerance for SCF             =     0.000100
redata: Require (free) Energy convergence in SCF =     F
redata: DM (free)Energy tolerance for SCF =     0.000010 eV
redata: Require Harris convergence for SCF =     F
redata: DM Harris energy tolerance for SCF =     0.000010 eV
redata: Using Saved Data (generic)   =     F
redata: Use continuation files for DM    =     F
redata: Neglect nonoverlap interactions  =     F
redata: Method of Calculation            =     old SLEPc
redata: Fix the spin of the system       =     F
redata: Dynamics option                  =     Single-point calculation
redata: ***********************************************************************
Total number of electrons:   512.000000
Total ionic charge:   512.000000

* ProcessorY, Blocksize:    8  23


* Orbital distribution balance (max,min):    23    23

 Kpoints in:            1 . Kpoints trimmed:            1

siesta: k-grid: Number of k-points =     1
siesta: k-grid: Cutoff (effective) =     6.209 Ang
siesta: k-grid: Supercell and displacements
siesta: k-grid:    1   0   0      0.000
siesta: k-grid:    0   1   0      0.000
siesta: k-grid:    0   0   1      0.000

                     ====================================
                        Single-point calculation
                     ====================================

outcell: Unit cell vectors (Ang):
       12.418275    0.000000    0.000000
        0.000000   12.418275    0.000000
        0.000000    0.000000   12.418275

outcell: Cell vector modules (Ang)   :   12.418275   12.418275   12.418275
outcell: Cell angles (23,13,12) (deg):     90.0000     90.0000     90.0000
outcell: Cell volume (Ang**3)        :   1915.0663
 Folding of H and S is implicitly performed
New_DM. Step:     1
Initializing Density Matrix...
New grid distribution:   1
           1       1:   48    1:    6    1:    6
           2       1:   48    1:    6    7:   12
           3       1:   48    1:    6   13:   18
           4       1:   48    1:    6   19:   24
           5       1:   48    1:    6   25:   30
           6       1:   48    1:    6   31:   36
           7       1:   48    1:    6   37:   42
           8       1:   48    1:    6   43:   48
           9       1:   48    7:   12    1:    6
          10       1:   48    7:   12    7:   12
          11       1:   48    7:   12   13:   18
          12       1:   48    7:   12   19:   24
          13       1:   48    7:   12   25:   30
          14       1:   48    7:   12   31:   36
          15       1:   48    7:   12   37:   42
          16       1:   48    7:   12   43:   48
          17       1:   48   13:   18    1:    6
          18       1:   48   13:   18    7:   12
          19       1:   48   13:   18   13:   18
          20       1:   48   13:   18   19:   24
          21       1:   48   13:   18   25:   30
          22       1:   48   13:   18   31:   36
          23       1:   48   13:   18   37:   42
          24       1:   48   13:   18   43:   48
          25       1:   48   19:   24    1:    6
          26       1:   48   19:   24    7:   12
          27       1:   48   19:   24   13:   18
          28       1:   48   19:   24   19:   24
          29       1:   48   19:   24   25:   30
          30       1:   48   19:   24   31:   36
          31       1:   48   19:   24   37:   42
          32       1:   48   19:   24   43:   48
          33       1:   48   25:   30    1:    6
          34       1:   48   25:   30    7:   12
          35       1:   48   25:   30   13:   18
          36       1:   48   25:   30   19:   24
          37       1:   48   25:   30   25:   30
          38       1:   48   25:   30   31:   36
          39       1:   48   25:   30   37:   42
          40       1:   48   25:   30   43:   48
          41       1:   48   31:   36    1:    6
          42       1:   48   31:   36    7:   12
          43       1:   48   31:   36   13:   18
          44       1:   48   31:   36   19:   24
          45       1:   48   31:   36   25:   30
          46       1:   48   31:   36   31:   36
          47       1:   48   31:   36   37:   42
          48       1:   48   31:   36   43:   48
          49       1:   48   37:   42    1:    6
          50       1:   48   37:   42    7:   12
          51       1:   48   37:   42   13:   18
          52       1:   48   37:   42   19:   24
          53       1:   48   37:   42   25:   30
          54       1:   48   37:   42   31:   36
          55       1:   48   37:   42   37:   42
          56       1:   48   37:   42   43:   48
          57       1:   48   43:   48    1:    6
          58       1:   48   43:   48    7:   12
          59       1:   48   43:   48   13:   18
          60       1:   48   43:   48   19:   24
          61       1:   48   43:   48   25:   30
          62       1:   48   43:   48   31:   36
          63       1:   48   43:   48   37:   42
          64       1:   48   43:   48   43:   48

InitMesh: MESH =    96 x    96 x    96 =      884736
InitMesh: (bp) =    48 x    48 x    48 =      110592
InitMesh: Mesh cutoff (required, used) =   150.000   165.166 Ry
ExtMesh (bp) on 0 =   100 x    58 x    58 =      336400
New grid distribution:   2
           1      37:   48   13:   26    1:   12
           2      26:   38    1:   12    1:   12
           3      26:   37    1:   11   13:   24
           4      38:   48    1:   11   13:   24
           5      25:   34    1:   14   25:   37
           6      39:   48    1:   12    1:   12
           7       1:   16    1:   16   36:   48
           8      17:   24    1:   16   36:   48
           9      35:   48    1:   13   38:   48
          10       1:   12   15:   27   25:   35
          11      14:   24   37:   48   37:   48
          12      25:   37   39:   48    1:   11
          13      35:   48    1:   14   25:   37
          14      13:   24   17:   27   36:   48
          15      14:   25    1:   12    1:   11
          16      25:   34    1:   13   38:   48
          17      26:   36   13:   26    1:   12
          18       1:   13   38:   48    1:   11
          19      11:   25   10:   26   12:   24
          20      14:   25    1:    9   12:   24
          21       1:   14    1:   14   25:   35
          22       1:   13   27:   37    1:   11
          23      14:   24   38:   48    1:   11
          24      25:   36   14:   27   38:   48
          25      14:   25   13:   26    1:   11
          26       1:   13   39:   48   25:   36
          27       1:   10   10:   26   12:   24
          28      14:   24   27:   37    1:   11
          29      36:   48   15:   27   25:   37
          30      25:   35   15:   27   25:   37
          31      25:   34   27:   38   12:   24
          32       1:   10   28:   38   25:   36
          33       1:   12   17:   27   36:   48
          34      37:   48   27:   38    1:   11
          35      26:   37   12:   26   13:   24
          36      14:   24   39:   48   25:   36
          37       1:   13   13:   26    1:   11
          38      15:   24    1:   14   25:   35
          39      38:   48   39:   48    1:   11
          40      37:   48   14:   27   38:   48
          41      13:   24   15:   27   25:   35
          42      25:   36   27:   38    1:   11
          43      35:   48   27:   38   12:   24
          44       1:   11   28:   36   37:   48
          45      36:   48   28:   39   25:   37
          46      11:   24   28:   38   25:   36
          47       1:   13    1:    9   12:   24
          48      12:   24   28:   36   37:   48
          49      38:   48   12:   26   13:   24
          50       1:   13    1:   12    1:   11
          51      37:   48   39:   48   12:   24
          52      25:   33   39:   48   38:   48
          53      25:   35   28:   39   25:   37
          54      35:   48   40:   48   25:   37
          55       1:   13   37:   48   37:   48
          56      39:   48   28:   38   38:   48
          57      13:   24   27:   38   12:   24
          58      25:   38   28:   38   38:   48
          59      25:   36   39:   48   12:   24
          60      14:   24   39:   48   12:   24
          61       1:   12   27:   38   12:   24
          62       1:   13   39:   48   12:   24
          63      25:   34   40:   48   25:   37
          64      34:   48   39:   48   38:   48
New grid distribution:   3
           1      25:   36   13:   24   37:   48
           2      25:   36   37:   48   37:   48
           3      25:   36   13:   24    1:   12
           4      25:   36   37:   48    1:   12
           5      25:   36    1:   12   25:   36
           6      37:   48   37:   48   37:   48
           7      37:   48   13:   24    1:   12
           8      37:   48   37:   48    1:   12
           9      37:   48   13:   24   37:   48
          10      25:   36   25:   36   37:   48
          11      25:   36    1:   12    1:   12
          12      25:   36   25:   36    1:   12
          13      37:   48    1:   12   25:   36
          14      37:   48   25:   36   37:   48
          15      37:   48    1:   12    1:   12
          16      37:   48   25:   36    1:   12
          17      25:   36    1:   12   37:   48
          18       1:   12   37:   48   25:   36
          19      25:   36   13:   24   13:   24
          20       1:   12   37:   48    1:   12
          21      25:   36   13:   24   25:   36
          22      13:   24   37:   48   25:   36
          23      25:   36    1:   12   13:   24
          24      13:   24   37:   48    1:   12
          25      37:   48    1:   12   37:   48
          26       1:   12   25:   36   25:   36
          27      37:   48   13:   24   13:   24
          28       1:   12   25:   36    1:   12
          29      37:   48   13:   24   25:   36
          30      13:   24   25:   36   25:   36
          31      37:   48    1:   12   13:   24
          32      13:   24   25:   36    1:   12
          33       1:   12   13:   24   25:   36
          34       1:   12   37:   48   37:   48
          35       1:   12   13:   24    1:   12
          36      25:   36   25:   36   13:   24
          37      13:   24   13:   24   25:   36
          38      25:   36   25:   36   25:   36
          39      13:   24   13:   24    1:   12
          40       1:   12   37:   48   13:   24
          41       1:   12    1:   12   25:   36
          42      13:   24   37:   48   37:   48
          43       1:   12    1:   12    1:   12
          44      37:   48   25:   36   13:   24
          45      13:   24    1:   12   25:   36
          46      37:   48   25:   36   25:   36
          47      13:   24    1:   12    1:   12
          48      13:   24   37:   48   13:   24
          49       1:   12   13:   24   37:   48
          50       1:   12   25:   36   37:   48
          51       1:   12   13:   24   13:   24
          52      25:   36   37:   48   13:   24
          53      13:   24   13:   24   37:   48
          54      25:   36   37:   48   25:   36
          55      13:   24   13:   24   13:   24
          56       1:   12   25:   36   13:   24
          57       1:   12    1:   12   37:   48
          58      13:   24   25:   36   37:   48
          59       1:   12    1:   12   13:   24
          60      37:   48   37:   48   13:   24
          61      13:   24    1:   12   37:   48
          62      37:   48   37:   48   25:   36
          63      13:   24    1:   12   13:   24
          64      13:   24   25:   36   13:   24
Setting up quadratic distribution...
ExtMesh (bp) on 0 =    64 x    66 x    64 =      270336
PhiOnMesh: Number of (b)points on node 0 =                 2016
PhiOnMesh: nlist on node 0 =                68015
QETSC: Last update           = Nov 14, 2017
QETSC: Number of ranks       =          64
QETSC: Number of slices      =          64
QETSC: Number of ranks/slice =           1
QETSC: Number of evals/slice =   4.00
QETSC: Number of req. evals  =         256
QETSC: Number of rows (all)  =        1472
QETSC: Number of rows (max)  =          23
QETSC: Number of rows (min)  =          23
QETSC: Number of nonzeros    =      401924
QETSC: Nonzero % (all)       =  18.55
QETSC: Nonzero % (max)       =  21.05
QETSC: Nonzero % (min)       =  15.47
QETSC: Density option        =           0
QETSC: Bin type given        =           7
QETSC: Bin buffer given      =   0.01
QETSC: Diff thresh           =   0.10
QETSC: Infinity type         =           2
QETSC: Inertia type          =           1
 QETSC: Shifts, inertias         =
 -Infinity     0
    -2.300     0
    -2.263    25
    -2.227    64
    -2.190    64
    -2.154    64
    -2.117    64
    -2.081    64
    -2.044    64
    -2.008    64
    -1.971    64
    -1.935    64
    -1.898    64
    -1.862    64
    -1.825    64
    -1.789    64
    -1.752    64
    -1.716    64
    -1.679    64
    -1.643    64
    -1.606    64
    -1.570    64
    -1.533    64
    -1.497    64
    -1.460    64
    -1.424    64
    -1.387    64
    -1.351    64
    -1.314    82
    -1.278   122
    -1.241   128
    -1.205   128
    -1.168   130
    -1.132   149
    -1.095   177
    -1.059   192
    -1.022   192
    -0.986   205
    -0.949   256
    -0.913   256
    -0.876   256
    -0.840   256
    -0.803   256
    -0.767   256
    -0.730   256
    -0.694   256
    -0.657   256
    -0.621   256
    -0.584   256
    -0.548   256
    -0.511   256
    -0.475   256
    -0.438   256
    -0.402   256
    -0.365   256
    -0.329   256
    -0.292   256
    -0.256   256
    -0.219   256
    -0.183   256
    -0.146   256
    -0.110   256
    -0.073   256
    -0.037   256
    -0.000   257
 QETSc: Custers,iter,crange,npcmax,trial           1   5.4500574953589799E-003          10          15
-2.2956190476190477E+00
-2.2897777777777777E+00
-2.2839365079365077E+00
-2.2780952380952382E+00
-2.2722539682539682E+00
-2.2664126984126982E+00
-2.2597476597476596E+00
-2.2541310541310540E+00
-2.2485144485144484E+00
-2.2428978428978428E+00
-2.2372812372812372E+00
-2.2316646316646311E+00
-2.2279202279202277E+00
-1.3467372134038800E+00
-1.3406525573192238E+00
-1.3345679012345679E+00
-1.3284832451499118E+00
-1.3223985890652556E+00
-1.3163139329805997E+00
-1.3097222222222222E+00
-1.3042460317460318E+00
-1.2987698412698412E+00
-1.2932936507936508E+00
-1.2878174603174601E+00
-1.2823412698412697E+00
-1.2777777777777777E+00
-1.2716931216931215E+00
-1.2656084656084656E+00
-1.2595238095238095E+00
-1.2534391534391534E+00
-1.2473544973544974E+00
-1.2047619047619047E+00
-1.1865079365079365E+00
-1.1644110275689223E+00
-1.1586466165413534E+00
-1.1528822055137844E+00
-1.1471177944862156E+00
-1.1413533834586467E+00
-1.1355889724310777E+00
-1.1291383219954647E+00
-1.1226190476190476E+00
-1.1160997732426303E+00
-1.1095804988662130E+00
-1.1030612244897959E+00
-1.0965419501133786E+00
-1.0903703703703702E+00
-1.0830687830687831E+00
-1.0757671957671957E+00
-1.0684656084656083E+00
-1.0611640211640212E+00
-1.0194139194139193E+00
-1.0137973137973137E+00
-1.0081807081807082E+00
-1.0025641025641026E+00
-9.9694749694749696E-01
-9.9133089133089136E-01
-9.8356676003734833E-01
-9.7784002489884847E-01
-9.7211328976034861E-01
-9.6638655462184875E-01
-9.6065981948334889E-01
-9.5493308434484903E-01
-9.5063803299097416E-01
 QETSC: Bins             =
              -Infinity
-2.2999999999999998E+00
-2.2944507936507939E+00
-2.2886095238095239E+00
-2.2827682539682539E+00
-2.2769269841269844E+00
-2.2710857142857144E+00
-2.2650796906796904E+00
-2.2586243386243385E+00
-2.2530077330077329E+00
-2.2473911273911273E+00
-2.2417745217745217E+00
-2.2361579161579161E+00
-2.2309157509157505E+00
-2.0516836250169583E+00
-1.3455202821869487E+00
-1.3394356261022926E+00
-1.3333509700176367E+00
-1.3272663139329806E+00
-1.3211816578483244E+00
-1.3149955908289241E+00
-1.3086269841269842E+00
-1.3031507936507938E+00
-1.2976746031746031E+00
-1.2921984126984127E+00
-1.2867222222222221E+00
-1.2814285714285714E+00
-1.2765608465608465E+00
-1.2704761904761903E+00
-1.2643915343915344E+00
-1.2583068783068783E+00
-1.2522222222222221E+00
-1.2388359788359788E+00
-1.2011111111111110E+00
-1.1820885547201336E+00
-1.1632581453634085E+00
-1.1574937343358396E+00
-1.1517293233082706E+00
-1.1459649122807019E+00
-1.1402005012531329E+00
-1.1342988423439551E+00
-1.1278344671201812E+00
-1.1213151927437641E+00
-1.1147959183673468E+00
-1.1082766439909295E+00
-1.1017573696145124E+00
-1.0953076341647769E+00
-1.0889100529100528E+00
-1.0816084656084657E+00
-1.0743068783068783E+00
-1.0670052910052910E+00
-1.0528140008140008E+00
-1.0182905982905983E+00
-1.0126739926739927E+00
-1.0070573870573871E+00
-1.0014407814407815E+00
-9.9582417582417582E-01
-9.8977806507218280E-01
-9.8242141300964836E-01
-9.7669467787114850E-01
-9.7096794273264864E-01
-9.6524120759414878E-01
-9.5951447245564891E-01
-9.5407407407407407E-01
-9.4920634920634916E-01
QETSC: Started iter            1
QETSC: Bin type used         =           7
QETSC: Buffer used           =   0.0000000000000000E+00
QETSC: EPS interval          = -Infinity,    -0.949
QETSC: Inertia type          =           1
SLEPc: EPSSolve time = 54 9.537e-07
SLEPc: EPSSolve time = 0 9.537e-07
SLEPc: EPSSolve time = 14 -0.000e+00
SLEPc: EPSSolve time = 1 -0.000e+00
SLEPc: EPSSolve time = 13 1.192e-06
SLEPc: EPSSolve time = 16 -0.000e+00
SLEPc: EPSSolve time = 30 -0.000e+00
SLEPc: EPSSolve time = 31 -0.000e+00
SLEPc: EPSSolve time = 32 -0.000e+00
SLEPc: EPSSolve time = 33 9.537e-07
SLEPc: EPSSolve time = 51 9.537e-07
SLEPc: EPSSolve time = 52 -0.000e+00
SLEPc: EPSSolve time = 53 -0.000e+00
SLEPc: EPSSolve time = 63 9.537e-07
SLEPc: EPSSolve time = 49 4.815e-01
SLEPc: EPSSolve time = 55 4.830e-01
SLEPc: EPSSolve time = 12 4.842e-01
SLEPc: EPSSolve time = 28 4.844e-01
SLEPc: EPSSolve time = 2 4.855e-01
SLEPc: EPSSolve time = 20 4.859e-01
SLEPc: EPSSolve time = 35 4.864e-01
SLEPc: EPSSolve time = 41 4.864e-01
SLEPc: EPSSolve time = 37 4.889e-01
SLEPc: EPSSolve time = 26 4.898e-01
SLEPc: EPSSolve time = 47 4.923e-01
SLEPc: EPSSolve time = 43 4.932e-01
SLEPc: EPSSolve time = 45 4.972e-01
SLEPc: EPSSolve time = 18 4.976e-01
SLEPc: EPSSolve time = 4 4.977e-01
SLEPc: EPSSolve time = 50 4.981e-01
SLEPc: EPSSolve time = 39 4.998e-01
SLEPc: EPSSolve time = 29 5.000e-01
SLEPc: EPSSolve time = 15 5.015e-01
SLEPc: EPSSolve time = 24 5.025e-01
SLEPc: EPSSolve time = 61 5.029e-01
SLEPc: EPSSolve time = 22 5.037e-01
SLEPc: EPSSolve time = 6 5.067e-01
SLEPc: EPSSolve time = 10 5.084e-01
SLEPc: EPSSolve time = 8 5.085e-01
SLEPc: EPSSolve time = 42 5.122e-01
SLEPc: EPSSolve time = 21 5.133e-01
SLEPc: EPSSolve time = 27 5.157e-01
SLEPc: EPSSolve time = 62 5.175e-01
SLEPc: EPSSolve time = 40 5.186e-01
SLEPc: EPSSolve time = 46 5.191e-01
SLEPc: EPSSolve time = 48 5.195e-01
SLEPc: EPSSolve time = 19 5.204e-01
SLEPc: EPSSolve time = 17 5.208e-01
SLEPc: EPSSolve time = 23 5.209e-01
SLEPc: EPSSolve time = 3 5.221e-01
SLEPc: EPSSolve time = 36 5.226e-01
SLEPc: EPSSolve time = 44 5.241e-01
SLEPc: EPSSolve time = 11 5.244e-01
SLEPc: EPSSolve time = 38 5.250e-01
SLEPc: EPSSolve time = 5 5.255e-01
SLEPc: EPSSolve time = 34 5.267e-01
SLEPc: EPSSolve time = 9 5.278e-01
SLEPc: EPSSolve time = 25 5.290e-01
SLEPc: EPSSolve time = 7 5.291e-01
SLEPc: EPSSolve time = 57 5.297e-01
SLEPc: EPSSolve time = 59 5.303e-01
SLEPc: EPSSolve time = 56 5.316e-01
SLEPc: EPSSolve time = 60 5.481e-01
SLEPc: EPSSolve time = 58 5.562e-01
 QETSC: Eigenvalues         =
-2.2925698006015365E+00
-2.2871143591096494E+00
-2.2856175890633761E+00
-2.2836014941895129E+00
-2.2829215039502060E+00
-2.2827794324620578E+00
-2.2808914241768492E+00
-2.2791148307595352E+00
-2.2786854929827882E+00
-2.2771256968797426E+00
-2.2763226338437623E+00
-2.2740079881689850E+00
-2.2735239102037146E+00
-2.2730877643852887E+00
-2.2713900019608149E+00
-2.2711759408101915E+00
-2.2693067541635763E+00
-2.2691303497314226E+00
-2.2684666981159816E+00
-2.2681091358703651E+00
-2.2672297391566230E+00
-2.2666887552662565E+00
-2.2651960145230698E+00
-2.2646489992959502E+00
-2.2643587046546161E+00
-2.2632216059301355E+00
-2.2626721908385896E+00
-2.2618485462412115E+00
-2.2599984995396309E+00
-2.2595937459092768E+00
-2.2589711558918455E+00
-2.2582297033525673E+00
-2.2573660905286399E+00
-2.2569879222127165E+00
-2.2563308033903962E+00
-2.2548679619748224E+00
-2.2547212834614974E+00
-2.2543809791275420E+00
-2.2537988501419952E+00
-2.2534398227677714E+00
-2.2526314527892213E+00
-2.2519793340749432E+00
-2.2517935854169746E+00
-2.2504915689512375E+00
-2.2497492836163331E+00
-2.2486681081751851E+00
-2.2479414002931830E+00
-2.2475573179485440E+00
-2.2469410982864964E+00
-2.2467342023048364E+00
-2.2459195343294263E+00
-2.2450091825502971E+00
-2.2444994794994120E+00
-2.2436861403169837E+00
-2.2432347767008132E+00
-2.2419523039395624E+00
-2.2409830987745449E+00
-2.2404296658495224E+00
-2.2385266993096495E+00
-2.2382044697601744E+00
-2.2380431330097221E+00
-2.2371838759654716E+00
-2.2355398083877196E+00
-2.2340768158643689E+00
-1.3449317517835999E+00
-1.3441144597851904E+00
-1.3322449941768353E+00
-1.3299914883370325E+00
-1.3283486823980155E+00
-1.3282352364783192E+00
-1.3275615928415267E+00
-1.3263110202104247E+00
-1.3257567661894076E+00
-1.3241013679723710E+00
-1.3227653428620767E+00
-1.3215772440521112E+00
-1.3203660552793886E+00
-1.3199975310022751E+00
-1.3183268108991795E+00
-1.3169941090873980E+00
-1.3156206605642242E+00
-1.3154468552277625E+00
-1.3140414281206758E+00
-1.3128270896231828E+00
-1.3123721072072605E+00
-1.3107938190419859E+00
-1.3100622041726588E+00
-1.3083018331755905E+00
-1.3069151600296924E+00
-1.3052061390539849E+00
-1.3051607746986311E+00
-1.3044389573272859E+00
-1.3033401431331899E+00
-1.3026105895743647E+00
-1.3016894007928561E+00
-1.3014111942757232E+00
-1.3005635384831600E+00
-1.3002506921474186E+00
-1.3000495572465505E+00
-1.2991625690199107E+00
-1.2982647977182151E+00
-1.2975651512025583E+00
-1.2964598083307586E+00
-1.2954544293098635E+00
-1.2947206627981076E+00
-1.2943424355103050E+00
-1.2934381763214882E+00
-1.2917350038631852E+00
-1.2910654221609890E+00
-1.2905387259030401E+00
-1.2894206994157245E+00
-1.2889607446129614E+00
-1.2876044961178785E+00
-1.2860950436475389E+00
-1.2858915882873971E+00
-1.2852791770102989E+00
-1.2838310243914235E+00
-1.2831589522292004E+00
-1.2825087229957284E+00
-1.2817949432549811E+00
-1.2800870156601407E+00
-1.2797575030745272E+00
-1.2756999350307658E+00
-1.2744757959797710E+00
-1.2719867643137002E+00
-1.2712178456550165E+00
-1.2699259469405573E+00
-1.2643901513498232E+00
-1.1750808441193608E+00
-1.1697779577235023E+00
-1.1655677290489777E+00
-1.1640285510490571E+00
-1.1612852510158225E+00
-1.1581508808897563E+00
-1.1565686165803630E+00
-1.1559873574266621E+00
-1.1530425686883889E+00
-1.1502583511950089E+00
-1.1483175910877534E+00
-1.1458060130183352E+00
-1.1456128150718570E+00
-1.1424080793368223E+00
-1.1413283032809998E+00
-1.1398556991253737E+00
-1.1383217129632401E+00
-1.1380106857270111E+00
-1.1362467431967511E+00
-1.1347827033662676E+00
-1.1329775304698926E+00
-1.1313578100268809E+00
-1.1308135832527328E+00
-1.1291042352921599E+00
-1.1285842122010352E+00
-1.1273229176764799E+00
-1.1259588775738059E+00
-1.1246852464775319E+00
-1.1233167669333894E+00
-1.1211021335784037E+00
-1.1180466527463511E+00
-1.1169776572601300E+00
-1.1159312442589882E+00
-1.1149633582666509E+00
-1.1129766914142447E+00
-1.1124915995183238E+00
-1.1116655434593594E+00
-1.1095914500542812E+00
-1.1091356273602844E+00
-1.1071772995978806E+00
-1.1063540911303376E+00
-1.1047155591394022E+00
-1.1044629052064876E+00
-1.1034021130893810E+00
-1.1015342555645009E+00
-1.0996283473355468E+00
-1.0988968611865861E+00
-1.0978152082879089E+00
-1.0963987084648157E+00
-1.0951305311578474E+00
-1.0936750545648535E+00
-1.0928501081444653E+00
-1.0898091327196748E+00
-1.0888751365312257E+00
-1.0870561711325291E+00
-1.0841193850988702E+00
-1.0831118157624555E+00
-1.0800600380767718E+00
-1.0786060495262331E+00
-1.0767664510756989E+00
-1.0758643967346491E+00
-1.0724425095221080E+00
-1.0711077496041752E+00
-1.0668296743020096E+00
-9.9863890828376245E-01
-9.9612308055495724E-01
-9.9451738541802726E-01
-9.9353475922921330E-01
-9.9211198628756814E-01
-9.9126385748365686E-01
-9.8988271533244920E-01
-9.8887753585434013E-01
-9.8813435033693620E-01
-9.8772496275839983E-01
-9.8695992191460391E-01
-9.8623603690871975E-01
-9.8594905045787562E-01
-9.8528896169455460E-01
-9.8483133415585866E-01
-9.8450481076974405E-01
-9.8389221346581357E-01
-9.8352477144115602E-01
-9.8306682069417661E-01
-9.8272690949766206E-01
-9.8258822886165831E-01
-9.8216581817590987E-01
-9.8154717734248031E-01
-9.8102791008147916E-01
-9.8058548025275505E-01
-9.8033188635631918E-01
-9.7992898974957665E-01
-9.7912327317682912E-01
-9.7895373941524733E-01
-9.7858183896008522E-01
-9.7813161926514658E-01
-9.7758864081586017E-01
-9.7732160152766290E-01
-9.7710119938575601E-01
-9.7694625606134344E-01
-9.7664566045404355E-01
-9.7615989685081650E-01
-9.7563899591542080E-01
-9.7547009043735866E-01
-9.7493743114672216E-01
-9.7457534245652044E-01
-9.7436000522947452E-01
-9.7372962090322546E-01
-9.7312517064521742E-01
-9.7285398229679898E-01
-9.7242208135554131E-01
-9.7206329722698515E-01
-9.7146730871476128E-01
-9.7132293158482663E-01
-9.7075279136143011E-01
-9.7019539263935117E-01
-9.6967425470546298E-01
-9.6926829970591621E-01
-9.6862187047251769E-01
-9.6803672482195746E-01
-9.6770916530115403E-01
-9.6716289918387011E-01
-9.6659279889237171E-01
-9.6550565483055706E-01
-9.6413662102245712E-01
-9.6209830300483645E-01
-9.6005938131391566E-01
-9.5999622414412855E-01
-9.5752971599530923E-01
QETSC: Iter time (min)       =     1   0.88
QETSC: Iter time (max)       =     1   0.90
QETSC: Iter time (avg)       =     1   0.89
QETSC: Bin scores            =     1   0.06   0.00
QETSC: Empty bins            =     1          15
QETSC: Max,min eigs          =     1          14           1
QETSC: Max,min dists         =     1 7.008E-03 1.383E-06
QETSC: Bad bins              =     1          58          35
QETSC: Max neigs bin         =     1          58
QETSC: Max,min dist bins     =     1          35          30
QETSC: Num. of conv. evals   =     1         256
QETSC: Eigenvalue (1)        =     1  -2.2925698006015365E+00
QETSC: Eigenvalue (nocc)     =     1  -9.5752971599530923E-01
QETSC: Max differrence       =     1   2.2925698006015365E+00
QETSC: Safe iteration        =     1      F
QETSC: Finished iter         =           1
 *****************************************************************

siesta: Program's energy decomposition (eV):
siesta: Ebs     =     -9853.450642
siesta: Eions   =     52214.686644
siesta: Ena     =     12556.507513
siesta: Ekin    =     19885.827519
siesta: Enl     =     -2835.635831
siesta: DEna    =         0.000010
siesta: DUscf   =         0.000000
siesta: DUext   =         0.000000
siesta: Exc     =     -7134.138282
siesta: eta*DQ  =         0.000000
siesta: Emadel  =         0.000000
siesta: Emeta   =         0.000000
siesta: Emolmec =         0.000000
siesta: Ekinion =         0.000000
siesta: Eharris =    -30396.345194
siesta: Etot    =    -29742.125716
siesta: FreeEng =    -29742.125716
timer: Routine,Calls,Time,% =    IterSCF     1       1.088  40.84
             Section          Calls    Walltime % sect.
 IterSCF                          1       1.140  100.00
  setup_H                         1       0.136   11.91
  compute_dm                      1       1.003   87.96
  MIXER                           1       0.000    0.01
 QETSC: Shifts, inertias         =
 -Infinity     0
    -2.300     0
    -2.263     0
    -2.227     0
    -2.190     0
    -2.154     0
    -2.117     0
    -2.081     0
    -2.044     0
    -2.008     0
    -1.971     0
    -1.935     0
    -1.898     0
    -1.862     0
    -1.825     0
    -1.789     0
    -1.752     0
    -1.716     0
    -1.679     0
    -1.643     0
    -1.606     1
    -1.570     6
    -1.533    15
    -1.497    26
    -1.460    37
    -1.424    54
    -1.387    62
    -1.351    64
    -1.314    64
    -1.278    64
    -1.241    64
    -1.205    64
    -1.168    64
    -1.132    64
    -1.095    64
    -1.059    64
    -1.022    64
    -0.986    64
    -0.949    64
    -0.913    64
    -0.876    64
    -0.840    65
    -0.803    71
    -0.767    81
    -0.730    94
    -0.694   108
    -0.657   121
    -0.621   127
    -0.584   128
    -0.548   128
    -0.511   129
    -0.475   132
    -0.438   137
    -0.402   145
    -0.365   154
    -0.329   164
    -0.292   173
    -0.256   182
    -0.219   193
    -0.183   209
    -0.146   224
    -0.110   239
    -0.073   250
    -0.037   255
    -0.000   256
 QETSc: Custers,iter,crange,npcmax,trial           2   1.3858438775510205E-002          10           8
-1.6428571428571428E+00
-1.5990476190476188E+00
-1.5844444444444443E+00
-1.5657848324514991E+00
-1.5495590828924162E+00
-1.5333333333333332E+00
-1.5167388167388167E+00
-1.5001443001443002E+00
-1.4835497835497835E+00
-1.4669552669552668E+00
-1.4517273576097105E+00
-1.4366946778711482E+00
-1.4238095238095236E+00
-1.4055555555555554E+00
-1.3873015873015873E+00
-1.3690476190476191E+00
-8.7619047619047619E-01
-8.2751322751322753E-01
-8.0925925925925934E-01
-7.9222222222222227E-01
-7.7761904761904765E-01
-7.6105006105006112E-01
-7.4700854700854702E-01
-7.3296703296703303E-01
-7.1712018140589573E-01
-7.0147392290249433E-01
-6.8522588522588523E-01
-6.7118437118437113E-01
-6.5714285714285714E-01
-6.3888888888888884E-01
-6.2063492063492065E-01
-5.4761904761904767E-01
-4.9894179894179902E-01
-4.7460317460317469E-01
-4.6000000000000008E-01
-4.4539682539682546E-01
-4.2440476190476195E-01
-4.0615079365079371E-01
-3.8941798941798950E-01
-3.7319223985890659E-01
-3.5777777777777786E-01
-3.4317460317460324E-01
-3.2857142857142863E-01
-3.1234567901234572E-01
-2.9611992945326288E-01
-2.7989417989417997E-01
-2.6366843033509707E-01
-2.4891774891774901E-01
-2.3232323232323243E-01
-2.1676587301587313E-01
-2.0079365079365091E-01
-1.8482142857142866E-01
-1.7037037037037048E-01
-1.5576719576719586E-01
-1.4116402116402127E-01
-1.2656084656084665E-01
-1.1195767195767206E-01
-9.6248196248196360E-02
-7.9653679653679768E-02
-6.5714285714285836E-02
-5.1111111111111232E-02
-4.3809523809523930E-02
-1.2490009027033011E-16
 QETSC: Bins             =
              -Infinity
-1.6428571428571428E+00
-1.6340952380952380E+00
-1.5961269841269838E+00
-1.5807125220458553E+00
-1.5625396825396825E+00
-1.5463139329805995E+00
-1.5300144300144298E+00
-1.5134199134199133E+00
-1.4968253968253968E+00
-1.4802308802308801E+00
-1.4639096850861555E+00
-1.4487208216619980E+00
-1.4341176470588233E+00
-1.4201587301587300E+00
-1.4019047619047618E+00
-1.3836507936507936E+00
-1.2704761904761905E+00
-8.6645502645502648E-01
-8.2386243386243385E-01
-8.0585185185185193E-01
-7.8930158730158739E-01
-7.7430525030525033E-01
-7.5824175824175832E-01
-7.4420024420024422E-01
-7.2979766265480561E-01
-7.1399092970521549E-01
-6.9822431536717255E-01
-6.8241758241758244E-01
-6.6837606837606833E-01
-6.5349206349206346E-01
-6.3523809523809516E-01
-6.0603174603174603E-01
-5.3788359788359796E-01
-4.9407407407407417E-01
-4.7168253968253976E-01
-4.5707936507936514E-01
-4.4119841269841276E-01
-4.2075396825396832E-01
-4.0280423280423289E-01
-3.8617283950617293E-01
-3.7010934744268087E-01
-3.5485714285714293E-01
-3.4025396825396831E-01
-3.2532627865961206E-01
-3.0910052910052915E-01
-2.9287477954144631E-01
-2.7664902998236340E-01
-2.6071829405162744E-01
-2.4559884559884571E-01
-2.2921176046176056E-01
-2.1357142857142869E-01
-1.9759920634920647E-01
-1.8193121693121703E-01
-1.6744973544973554E-01
-1.5284656084656095E-01
-1.3824338624338633E-01
-1.2364021164021173E-01
-1.0881577681577692E-01
-9.2929292929293042E-02
-7.6865800865800984E-02
-6.2793650793650915E-02
-4.9650793650793772E-02
-3.5047619047619168E-02
-1.2490009027033011E-16
QETSC: Started iter            2
QETSC: Bin type used         =           7
QETSC: Buffer used           =   0.0000000000000000E+00
QETSC: EPS interval          = -Infinity,    -0.000
QETSC: Inertia type          =           1
SLEPc: EPSSolve time = 0 -0.000e+00
SLEPc: EPSSolve time = 32 -0.000e+00
SLEPc: EPSSolve time = 1 9.537e-07
SLEPc: EPSSolve time = 17 9.537e-07
SLEPc: EPSSolve time = 19 5.249e-01
SLEPc: EPSSolve time = 29 5.257e-01
SLEPc: EPSSolve time = 21 5.274e-01
SLEPc: EPSSolve time = 15 5.285e-01
SLEPc: EPSSolve time = 3 5.286e-01
SLEPc: EPSSolve time = 31 5.318e-01
SLEPc: EPSSolve time = 23 5.336e-01
SLEPc: EPSSolve time = 5 5.360e-01
SLEPc: EPSSolve time = 13 5.380e-01
SLEPc: EPSSolve time = 7 5.383e-01
SLEPc: EPSSolve time = 9 5.412e-01
SLEPc: EPSSolve time = 11 5.413e-01
SLEPc: EPSSolve time = 27 5.419e-01
SLEPc: EPSSolve time = 25 5.441e-01
SLEPc: EPSSolve time = 16 5.465e-01
SLEPc: EPSSolve time = 42 5.578e-01
SLEPc: EPSSolve time = 10 5.587e-01
SLEPc: EPSSolve time = 20 5.601e-01
SLEPc: EPSSolve time = 30 5.607e-01
SLEPc: EPSSolve time = 2 5.672e-01
SLEPc: EPSSolve time = 14 5.679e-01
SLEPc: EPSSolve time = 24 5.696e-01
SLEPc: EPSSolve time = 18 5.707e-01
SLEPc: EPSSolve time = 54 5.733e-01
SLEPc: EPSSolve time = 22 5.742e-01
SLEPc: EPSSolve time = 4 5.758e-01
SLEPc: EPSSolve time = 6 5.759e-01
SLEPc: EPSSolve time = 12 5.766e-01
SLEPc: EPSSolve time = 8 5.792e-01
SLEPc: EPSSolve time = 62 5.796e-01
SLEPc: EPSSolve time = 48 5.813e-01
SLEPc: EPSSolve time = 26 5.819e-01
SLEPc: EPSSolve time = 40 5.822e-01
SLEPc: EPSSolve time = 28 5.827e-01
SLEPc: EPSSolve time = 36 5.844e-01
SLEPc: EPSSolve time = 50 5.847e-01
SLEPc: EPSSolve time = 46 5.850e-01
SLEPc: EPSSolve time = 44 5.856e-01
SLEPc: EPSSolve time = 52 5.878e-01
SLEPc: EPSSolve time = 33 5.880e-01
SLEPc: EPSSolve time = 34 5.883e-01
SLEPc: EPSSolve time = 60 5.893e-01
SLEPc: EPSSolve time = 38 5.962e-01
SLEPc: EPSSolve time = 58 5.963e-01
SLEPc: EPSSolve time = 63 6.015e-01
SLEPc: EPSSolve time = 56 6.024e-01
SLEPc: EPSSolve time = 51 6.026e-01
SLEPc: EPSSolve time = 47 6.046e-01
SLEPc: EPSSolve time = 35 6.053e-01
SLEPc: EPSSolve time = 45 6.057e-01
SLEPc: EPSSolve time = 43 6.058e-01
SLEPc: EPSSolve time = 53 6.067e-01
SLEPc: EPSSolve time = 61 6.094e-01
SLEPc: EPSSolve time = 49 6.105e-01
SLEPc: EPSSolve time = 55 6.114e-01
SLEPc: EPSSolve time = 37 6.118e-01
SLEPc: EPSSolve time = 39 6.121e-01
SLEPc: EPSSolve time = 41 6.127e-01
SLEPc: EPSSolve time = 57 6.187e-01
SLEPc: EPSSolve time = 59 6.247e-01
 QETSC: Eigenvalues         =
-1.6234847694111936E+00
-1.6019268333916632E+00
-1.5906774929512775E+00
-1.5851038410318314E+00
-1.5796423644051252E+00
-1.5758336072941181E+00
-1.5670355128362057E+00
-1.5641997101442275E+00
-1.5499091774395273E+00
-1.5479309098833001E+00
-1.5469849463744323E+00
-1.5438465498281189E+00
-1.5418654170270543E+00
-1.5378752347888804E+00
-1.5338564481555284E+00
-1.5279656320771158E+00
-1.5269104289209909E+00
-1.5204252894801065E+00
-1.5137755001551949E+00
-1.5114741016768998E+00
-1.5094546949366117E+00
-1.5086681210785955E+00
-1.5059168904985094E+00
-1.5046926634758244E+00
-1.5014257381516469E+00
-1.4975548584146030E+00
-1.4945730944025968E+00
-1.4931616043869189E+00
-1.4921495714668280E+00
-1.4874645804898063E+00
-1.4861543442727043E+00
-1.4851386031445857E+00
-1.4832231588047173E+00
-1.4757427624195047E+00
-1.4712077710374829E+00
-1.4671672363026316E+00
-1.4604773531513824E+00
-1.4600959673161511E+00
-1.4565550786829846E+00
-1.4558353704874176E+00
-1.4527449348089332E+00
-1.4520833913487745E+00
-1.4513356561445114E+00
-1.4485021534922145E+00
-1.4444653525407436E+00
-1.4428816200449546E+00
-1.4404602224946006E+00
-1.4387157973846985E+00
-1.4374842791863622E+00
-1.4353805657818957E+00
-1.4331575351499746E+00
-1.4324826387708409E+00
-1.4303079386271857E+00
-1.4254802927055341E+00
-1.4211493972699321E+00
-1.4191540778698322E+00
-1.4132514389672430E+00
-1.4116981150438812E+00
-1.4097776290749109E+00
-1.4019506045039243E+00
-1.3937652882796516E+00
-1.3916512616120260E+00
-1.3872234088340811E+00
-1.3678528248733930E+00
-8.4202769941652678E-01
-8.3776465524410493E-01
-8.2762320181690263E-01
-8.2631795819488374E-01
-8.2503598505529308E-01
-8.1126187565045405E-01
-8.0966771778696389E-01
-7.9959987970054092E-01
-7.9614424636695891E-01
-7.9218538741756517E-01
-7.8600996604929918E-01
-7.7927591003587382E-01
-7.7849037240468721E-01
-7.7731484748955149E-01
-7.7227122275952376E-01
-7.6870550014623373E-01
-7.6859972711070579E-01
-7.6484496473021513E-01
-7.6202403246135797E-01
-7.6096008500885071E-01
-7.5820171449103935E-01
-7.5687475345376398E-01
-7.5264872127889326E-01
-7.5070452247156483E-01
-7.4717133599565899E-01
-7.4220811406613219E-01
-7.4129751824996637E-01
-7.3908827669727428E-01
-7.3446265688052303E-01
-7.3090384249064067E-01
-7.2913005157931754E-01
-7.2797543012719512E-01
-7.2366673350295407E-01
-7.2115268429609547E-01
-7.1593784881053268E-01
-7.1525337214963591E-01
-7.1210037686520744E-01
-7.1192685142939205E-01
-7.1148984051660180E-01
-7.0864256092612599E-01
-7.0667886293320903E-01
-7.0134342342931655E-01
-6.9887864403762767E-01
-6.9662981498127641E-01
-6.9174678194823158E-01
-6.9042886795731795E-01
-6.8704149027138739E-01
-6.8674154627152384E-01
-6.8562919866332528E-01
-6.8181750297428689E-01
-6.8089995789365321E-01
-6.7742588360124789E-01
-6.7486361111679682E-01
-6.7417133057052259E-01
-6.7045983896371497E-01
-6.6877671957820872E-01
-6.6221518827565140E-01
-6.5606559593756753E-01
-6.4744197054734032E-01
-6.4235608496525476E-01
-6.3985458534337936E-01
-6.3074256456187472E-01
-6.2933788529851953E-01
-6.1262669055022001E-01
-5.1755383903868368E-01
-4.9285227460141889E-01
-4.8442483352214233E-01
-4.7754835280665692E-01
-4.6925530153437423E-01
-4.5897893150840202E-01
-4.5785260556932600E-01
-4.5177423257813887E-01
-4.5062295610459135E-01
-4.3582942472531855E-01
-4.2972117420562561E-01
-4.2306411212067441E-01
-4.1953736266023450E-01
-4.1801398805268064E-01
-4.1395907347225563E-01
-4.1081535999582353E-01
-4.0401624347179843E-01
-3.9466962939964834E-01
-3.9316080356883987E-01
-3.8732476569863483E-01
-3.8250060127842062E-01
-3.8025901848199711E-01
-3.7718014874448613E-01
-3.7244044175077656E-01
-3.6708371853442306E-01
-3.6599684770668134E-01
-3.5932953614665741E-01
-3.5830111157680750E-01
-3.5667363048416351E-01
-3.5087583171608366E-01
-3.4960740161196391E-01
-3.4581595588804070E-01
-3.3702819636452092E-01
-3.3677421396736945E-01
-3.3403569451554627E-01
-3.2860829612660986E-01
-3.2439473062886331E-01
-3.2160158998930866E-01
-3.1944938412544965E-01
-3.1452327432231586E-01
-3.1132810970185054E-01
-3.0739106419421525E-01
-2.9745201108726427E-01
-2.9589357337320088E-01
-2.9309948988846746E-01
-2.8980115838447118E-01
-2.8692470778521334E-01
-2.8384218386919807E-01
-2.8161481205506095E-01
-2.7795483603182608E-01
-2.7174937042031222E-01
-2.6935364530665362E-01
-2.6439981616982838E-01
-2.6230989048731435E-01
-2.5471098867865311E-01
-2.5131107035297984E-01
-2.4716385214971023E-01
-2.4608842699688685E-01
-2.4340281396743957E-01
-2.4006868157067160E-01
-2.3837005610609749E-01
-2.3275294446708467E-01
-2.3077949345135160E-01
-2.2670303137597522E-01
-2.2483103747124536E-01
-2.1765728032788415E-01
-2.1513765007252583E-01
-2.1359969618936198E-01
-2.1034319495274434E-01
-2.0973952009686431E-01
-2.0516537086116393E-01
-2.0431267346271864E-01
-2.0042431546094841E-01
-1.9678114606022459E-01
-1.9585800876850828E-01
-1.9367014184852371E-01
-1.9341531272309925E-01
-1.9028235762356460E-01
-1.8758945333203680E-01
-1.8547876858702250E-01
-1.8275663538263009E-01
-1.8230992456698183E-01
-1.8007542071692217E-01
-1.7717585538306851E-01
-1.7203978240440027E-01
-1.7031065943865270E-01
-1.6925762307345166E-01
-1.6901830538825505E-01
-1.6296034035604182E-01
-1.6183988920760956E-01
-1.5970050723271020E-01
-1.5807337667253565E-01
-1.5641251632984546E-01
-1.5359880095800724E-01
-1.4853055765987286E-01
-1.4671731971490498E-01
-1.4325773132259043E-01
-1.4225672298824688E-01
-1.3957678448101021E-01
-1.3740180621748277E-01
-1.3472871683547749E-01
-1.3335614730301545E-01
-1.3160588318897373E-01
-1.3098629745911677E-01
-1.2609460480664167E-01
-1.2386535190810989E-01
-1.2186084319831053E-01
-1.1767327067514426E-01
-1.1524110876016316E-01
-1.1224879023452752E-01
-1.0984879980703517E-01
-1.0779911503424906E-01
-1.0541062486062057E-01
-1.0325163315427317E-01
-9.7445354756994798E-02
-9.3833736267367435E-02
-8.9967147031787723E-02
-8.7759960238786489E-02
-8.5557137066008010E-02
-8.2367297799754380E-02
-8.0102082583435985E-02
-7.7539020374981393E-02
-7.1070878619389752E-02
-6.8729767982668680E-02
-6.3178214624946577E-02
-5.7129831988905359E-02
-4.2512049779988591E-02
-2.3290903312156105E-02
QETSC: Iter time (min)       =     2   0.88
QETSC: Iter time (max)       =     2   0.89
QETSC: Iter time (avg)       =     2   0.89
QETSC: Bin scores            =     2   0.17   0.01
QETSC: Empty bins            =     2           5
QETSC: Max,min eigs          =     2           9           1
QETSC: Max,min dists         =     2 2.443E-02 4.004E-05
QETSC: Bad bins              =     2          19          19
QETSC: Max neigs bin         =     2          53
QETSC: Max,min dist bins     =     2          19          24
QETSC: Num. of conv. evals   =     2         256
QETSC: Eigenvalue (1)        =     2  -1.6234847694111936E+00
QETSC: Eigenvalue (nocc)     =     2  -2.3290903312156105E-02
QETSC: Max differrence       =     2   9.3423881268315312E-01
QETSC: Safe iteration        =     2      F
QETSC: Finished iter         =           2
 *****************************************************************
 QETSC: Shifts, inertias         =
 -Infinity     0
    -2.300     0
    -2.263     0
    -2.227     0
    -2.190     0
    -2.154     0
    -2.117     0
    -2.081     0
    -2.044     0
    -2.008     1
    -1.971    17
    -1.935    46
    -1.898    64
    -1.862    64
    -1.825    64
    -1.789    64
    -1.752    64
    -1.716    64
    -1.679    64
    -1.643    64
    -1.606    64
    -1.570    64
    -1.533    64
    -1.497    64
    -1.460    64
    -1.424    64
    -1.387    64
    -1.351    64
    -1.314    64
    -1.278    64
    -1.241    64
    -1.205    64
    -1.168    64
    -1.132    64
    -1.095    71
    -1.059    93
    -1.022   119
    -0.986   128
    -0.949   128
    -0.913   128
    -0.876   131
    -0.840   143
    -0.803   159
    -0.767   176
    -0.730   191
    -0.694   192
    -0.657   207
    -0.621   240
    -0.584   256
    -0.548   256
    -0.511   256
    -0.475   256
    -0.438   256
    -0.402   256
    -0.365   256
    -0.329   256
    -0.292   256
    -0.256   256
    -0.219   256
    -0.183   256
    -0.146   256
    -0.110   256
    -0.073   256
    -0.037   256
    -0.000   256
 QETSc: WARNING, merging          64 clusters
 QETSc: Custers,iter,crange,npcmax,trial           3   2.8742763242638296                4           2
-2.0033730158730156E+00
-1.9942460317460318E+00
-1.9851190476190474E+00
-1.9759920634920634E+00
-1.9689107827038861E+00
-1.9638752052545154E+00
-1.9588396278051450E+00
-1.9538040503557743E+00
-1.9487684729064039E+00
-1.9437328954570332E+00
-1.9386973180076625E+00
-1.9328924162257493E+00
-1.9247795414462079E+00
-1.9166666666666665E+00
-1.9085537918871252E+00
-1.9004409171075838E+00
-1.1160997732426303E+00
-1.0952380952380951E+00
-1.0886002886002886E+00
-1.0819624819624818E+00
-1.0753246753246752E+00
-1.0686868686868687E+00
-1.0620490620490621E+00
-1.0559218559218559E+00
-1.0503052503052503E+00
-1.0446886446886448E+00
-1.0390720390720389E+00
-1.0334554334554333E+00
-1.0278388278388277E+00
-1.0222222222222221E+00
-1.0059964726631394E+00
-9.8977072310405645E-01
-8.7619047619047619E-01
-8.6402116402116402E-01
-8.5185185185185186E-01
-8.3968253968253970E-01
-8.3055555555555560E-01
-8.2142857142857140E-01
-8.1230158730158730E-01
-8.0317460317460321E-01
-7.9458450046685347E-01
-7.8599439775910374E-01
-7.7740429505135389E-01
-7.6881419234360415E-01
-7.5936507936507947E-01
-7.4962962962962965E-01
-7.3989417989417994E-01
-7.3015873015873023E-01
-6.8634920634920638E-01
-6.7661375661375656E-01
-6.6687830687830685E-01
-6.5714285714285714E-01
-6.5271765271765270E-01
-6.4386724386724392E-01
-6.3944203944203948E-01
-6.3501683501683504E-01
-6.3059163059163059E-01
-6.2616642616642615E-01
-6.2174122174122171E-01
-6.1378968253968258E-01
-6.0466269841269848E-01
-5.9553571428571428E-01
-5.8869047619047621E-01
 QETSC: Bins             =
              -Infinity
-2.0444444444444443E+00
-2.0015476190476189E+00
-1.9924206349206348E+00
-1.9832936507936507E+00
-1.9745758073344279E+00
-1.9679036672140120E+00
-1.9628680897646413E+00
-1.9578325123152709E+00
-1.9527969348659002E+00
-1.9477613574165298E+00
-1.9427257799671591E+00
-1.9375363376512800E+00
-1.9312698412698410E+00
-1.9231569664902997E+00
-1.9150440917107583E+00
-1.9069312169312169E+00
-1.7435726883345930E+00
-1.1119274376417232E+00
-1.0939105339105337E+00
-1.0872727272727272E+00
-1.0806349206349204E+00
-1.0739971139971138E+00
-1.0673593073593073E+00
-1.0608236208236208E+00
-1.0547985347985349E+00
-1.0491819291819293E+00
-1.0435653235653235E+00
-1.0379487179487179E+00
-1.0323321123321123E+00
-1.0267155067155067E+00
-1.0189770723104057E+00
-1.0027513227513227E+00
-9.6705467372134035E-01
-8.7375661375661373E-01
-8.6158730158730157E-01
-8.4941798941798941E-01
-8.3785714285714286E-01
-8.2873015873015876E-01
-8.1960317460317456E-01
-8.1047619047619046E-01
-8.0145658263305330E-01
-7.9286647992530357E-01
-7.8427637721755372E-01
-7.7568627450980399E-01
-7.6692436974789924E-01
-7.5741798941798955E-01
-7.4768253968253973E-01
-7.3794708994709002E-01
-7.2139682539682548E-01
-6.8440211640211646E-01
-6.7466666666666664E-01
-6.6493121693121693E-01
-6.5625781625781621E-01
-6.5094757094757094E-01
-6.4298220298220299E-01
-6.3855699855699855E-01
-6.3413179413179410E-01
-6.2970658970658966E-01
-6.2528138528138522E-01
-6.2015091390091392E-01
-6.1196428571428574E-01
-6.0283730158730164E-01
-5.9416666666666662E-01
-5.8412698412698416E-01
QETSC: Started iter            3
QETSC: Bin type used         =           7
QETSC: Buffer used           =   0.0000000000000000E+00
QETSC: EPS interval          = -Infinity,    -0.584
QETSC: Inertia type          =           1
SLEPc: EPSSolve time = 0 -0.000e+00
SLEPc: EPSSolve time = 16 5.483e-01
SLEPc: EPSSolve time = 22 5.664e-01
SLEPc: EPSSolve time = 14 5.701e-01
SLEPc: EPSSolve time = 30 5.705e-01
SLEPc: EPSSolve time = 24 5.711e-01
SLEPc: EPSSolve time = 8 5.715e-01
SLEPc: EPSSolve time = 20 5.715e-01
SLEPc: EPSSolve time = 2 5.735e-01
SLEPc: EPSSolve time = 6 5.747e-01
SLEPc: EPSSolve time = 10 5.750e-01
SLEPc: EPSSolve time = 4 5.752e-01
SLEPc: EPSSolve time = 28 5.772e-01
SLEPc: EPSSolve time = 26 5.777e-01
SLEPc: EPSSolve time = 18 5.805e-01
SLEPc: EPSSolve time = 12 5.837e-01
SLEPc: EPSSolve time = 49 5.920e-01
SLEPc: EPSSolve time = 53 5.950e-01
SLEPc: EPSSolve time = 35 5.965e-01
SLEPc: EPSSolve time = 42 5.994e-01
SLEPc: EPSSolve time = 63 5.999e-01
SLEPc: EPSSolve time = 51 6.004e-01
SLEPc: EPSSolve time = 33 6.013e-01
SLEPc: EPSSolve time = 21 6.016e-01
SLEPc: EPSSolve time = 47 6.019e-01
SLEPc: EPSSolve time = 17 6.029e-01
SLEPc: EPSSolve time = 45 6.029e-01
SLEPc: EPSSolve time = 41 6.058e-01
SLEPc: EPSSolve time = 43 6.070e-01
SLEPc: EPSSolve time = 15 6.082e-01
SLEPc: EPSSolve time = 9 6.085e-01
SLEPc: EPSSolve time = 7 6.094e-01
SLEPc: EPSSolve time = 27 6.094e-01
SLEPc: EPSSolve time = 37 6.093e-01
SLEPc: EPSSolve time = 55 6.102e-01
SLEPc: EPSSolve time = 11 6.128e-01
SLEPc: EPSSolve time = 39 6.129e-01
SLEPc: EPSSolve time = 23 6.134e-01
SLEPc: EPSSolve time = 29 6.138e-01
SLEPc: EPSSolve time = 1 6.141e-01
SLEPc: EPSSolve time = 57 6.144e-01
SLEPc: EPSSolve time = 32 6.151e-01
SLEPc: EPSSolve time = 19 6.179e-01
SLEPc: EPSSolve time = 59 6.186e-01
SLEPc: EPSSolve time = 5 6.190e-01
SLEPc: EPSSolve time = 3 6.191e-01
SLEPc: EPSSolve time = 52 6.203e-01
SLEPc: EPSSolve time = 54 6.211e-01
SLEPc: EPSSolve time = 25 6.227e-01
SLEPc: EPSSolve time = 31 6.231e-01
SLEPc: EPSSolve time = 13 6.252e-01
SLEPc: EPSSolve time = 61 6.255e-01
SLEPc: EPSSolve time = 50 6.292e-01
SLEPc: EPSSolve time = 40 6.305e-01
SLEPc: EPSSolve time = 62 6.341e-01
SLEPc: EPSSolve time = 48 6.348e-01
SLEPc: EPSSolve time = 38 6.378e-01
SLEPc: EPSSolve time = 56 6.379e-01
SLEPc: EPSSolve time = 36 6.383e-01
SLEPc: EPSSolve time = 58 6.389e-01
SLEPc: EPSSolve time = 46 6.397e-01
SLEPc: EPSSolve time = 44 6.411e-01
SLEPc: EPSSolve time = 34 6.418e-01
SLEPc: EPSSolve time = 60 6.421e-01
 QETSC: Eigenvalues         =
-2.0093293821851521E+00
-2.0047698518976458E+00
-2.0039352861532658E+00
-2.0030080660549818E+00
-1.9980464901943620E+00
-1.9972830668329973E+00
-1.9933902019738994E+00
-1.9918707206646045E+00
-1.9903904961928582E+00
-1.9884621862870113E+00
-1.9848503338581192E+00
-1.9833500934962207E+00
-1.9805508689598523E+00
-1.9786498210605317E+00
-1.9754500942226958E+00
-1.9738751590010595E+00
-1.9729916629701738E+00
-1.9708329283784585E+00
-1.9698122254866250E+00
-1.9680720108784548E+00
-1.9662898733948331E+00
-1.9645167733444286E+00
-1.9629312153812786E+00
-1.9619685467180752E+00
-1.9604078083730321E+00
-1.9586414593081225E+00
-1.9570770864087834E+00
-1.9568035338346326E+00
-1.9548031336420733E+00
-1.9538146164604180E+00
-1.9521206446197017E+00
-1.9518098581286596E+00
-1.9489267019490937E+00
-1.9485403428315411E+00
-1.9473384416018906E+00
-1.9462088123021042E+00
-1.9460977682937874E+00
-1.9441813034726225E+00
-1.9432042860853238E+00
-1.9426507393860617E+00
-1.9415264150647766E+00
-1.9394460785931380E+00
-1.9379141864673903E+00
-1.9372680333607195E+00
-1.9368526157719272E+00
-1.9359495088264980E+00
-1.9347541469907259E+00
-1.9337920753314497E+00
-1.9319479305654688E+00
-1.9309069328961204E+00
-1.9296195938821530E+00
-1.9276025474335825E+00
-1.9272897391447390E+00
-1.9265383850513937E+00
-1.9254240088722698E+00
-1.9234644598758568E+00
-1.9209403972653583E+00
-1.9206069444260654E+00
-1.9196080334429724E+00
-1.9166793468849148E+00
-1.9149273368916109E+00
-1.9130029428747388E+00
-1.9091296761140983E+00
-1.9017342902906886E+00
-1.1254697589072513E+00
-1.1252977256556660E+00
-1.1091251566554898E+00
-1.1052170059715511E+00
-1.0976909584716124E+00
-1.0963789088476465E+00
-1.0955144240453694E+00
-1.0936962685905542E+00
-1.0914271772483091E+00
-1.0901035337293898E+00
-1.0894706014879449E+00
-1.0879079515543564E+00
-1.0868226413892654E+00
-1.0859471658001907E+00
-1.0815972865191388E+00
-1.0784733211904931E+00
-1.0775059392318946E+00
-1.0766204232015972E+00
-1.0750348386988748E+00
-1.0726148834165086E+00
-1.0708205691818466E+00
-1.0674585941793744E+00
-1.0656821937464551E+00
-1.0639722510353540E+00
-1.0632436183633169E+00
-1.0627848357160001E+00
-1.0621644654098306E+00
-1.0605892953567553E+00
-1.0598866561519824E+00
-1.0583230781912456E+00
-1.0567375664648224E+00
-1.0543178737821119E+00
-1.0532204937518874E+00
-1.0529374617334677E+00
-1.0511139143922972E+00
-1.0509167038568541E+00
-1.0499402495047769E+00
-1.0490139252898600E+00
-1.0466717803461651E+00
-1.0458066130488708E+00
-1.0446789474041305E+00
-1.0421765171001358E+00
-1.0418522838992976E+00
-1.0393840522558702E+00
-1.0386863767305687E+00
-1.0377544691419176E+00
-1.0367537685545822E+00
-1.0350404627164522E+00
-1.0334153859064124E+00
-1.0311592040133308E+00
-1.0301538032364059E+00
-1.0292124105588447E+00
-1.0286314827170140E+00
-1.0267813679345388E+00
-1.0225350565861069E+00
-1.0204141277947014E+00
-1.0196674452395522E+00
-1.0182629139638972E+00
-1.0163473930671365E+00
-1.0148295550077677E+00
-1.0128632909314597E+00
-1.0092205853606666E+00
-1.0024693553916415E+00
-1.0014448670358951E+00
-8.9519920029317335E-01
-8.8371910949861743E-01
-8.8019513248420933E-01
-8.7289627838292494E-01
-8.7145049182057721E-01
-8.7047672574880630E-01
-8.6888788654502636E-01
-8.6273507374363945E-01
-8.5696902353406379E-01
-8.5374912061071184E-01
-8.5058511687832405E-01
-8.4623421531525622E-01
-8.4329144433191794E-01
-8.4171758067234659E-01
-8.4042869426123490E-01
-8.3729773962654086E-01
-8.3374296161501071E-01
-8.3108326071237648E-01
-8.2748622053380216E-01
-8.2448489874276853E-01
-8.2362788810014476E-01
-8.2038874880246859E-01
-8.1950207497032879E-01
-8.1712950378489702E-01
-8.1546342648673620E-01
-8.1363022457477130E-01
-8.1174907565342069E-01
-8.0959058222866509E-01
-8.0622814341873383E-01
-8.0431336875446025E-01
-8.0393197620217627E-01
-8.0115544238060643E-01
-7.9740273534216521E-01
-7.9500051047170583E-01
-7.9352963258238884E-01
-7.9119349944227568E-01
-7.8906341763977350E-01
-7.8754357523055785E-01
-7.8411794033369320E-01
-7.8349560912349869E-01
-7.8018132890246072E-01
-7.7958916289396862E-01
-7.7523132002034789E-01
-7.7291480215484476E-01
-7.7094930258081340E-01
-7.7012911231006154E-01
-7.6797280173862947E-01
-7.6681275900226775E-01
-7.6594561615371748E-01
-7.6221289148798610E-01
-7.5549940568039819E-01
-7.5437776844668103E-01
-7.5190718881471585E-01
-7.5001285631598291E-01
-7.4950221083829482E-01
-7.4828998071924424E-01
-7.4637730929376211E-01
-7.4121685335947418E-01
-7.4003279423845691E-01
-7.3741331297070956E-01
-7.3552527022915082E-01
-7.3245990151129514E-01
-7.3160915333282206E-01
-7.2187239022678418E-01
-6.8621268936167135E-01
-6.8069290149700779E-01
-6.7897994124527838E-01
-6.7815333841550673E-01
-6.7362630025824199E-01
-6.7220786884905737E-01
-6.7088998409350475E-01
-6.6801215682437765E-01
-6.6494554137930095E-01
-6.6387532285485984E-01
-6.6196195300403338E-01
-6.6115514793702967E-01
-6.5951806125328127E-01
-6.5840523752220714E-01
-6.5737644559830299E-01
-6.5654652885604192E-01
-6.5545338867503977E-01
-6.5427088949428092E-01
-6.5201398355432949E-01
-6.5174225053033474E-01
-6.5071479985189529E-01
-6.4999095170531973E-01
-6.4742997821385295E-01
-6.4725670505977373E-01
-6.4631710396609521E-01
-6.4580283125926397E-01
-6.4334248553680229E-01
-6.4249473600841367E-01
-6.4178924644970825E-01
-6.4111226723310544E-01
-6.4039426549643086E-01
-6.3973166737701459E-01
-6.3799294884261526E-01
-6.3708065393682567E-01
-6.3555298142511996E-01
-6.3521635667556797E-01
-6.3320467393179858E-01
-6.3214953878435654E-01
-6.3084178557364012E-01
-6.3018444831483766E-01
-6.2899376870502754E-01
-6.2866129065593790E-01
-6.2819966033126695E-01
-6.2542643198696157E-01
-6.2426263098600876E-01
-6.2337180884312371E-01
-6.2252496640984956E-01
-6.2125562475152196E-01
-6.2056284011285578E-01
-6.1803045571253901E-01
-6.1639845196393694E-01
-6.1519143093597484E-01
-6.1352240702152760E-01
-6.1297456434388209E-01
-6.1042077426638031E-01
-6.0850787891729263E-01
-6.0686523303888995E-01
-6.0583032439577345E-01
-6.0482116386292462E-01
-6.0325876155364144E-01
-6.0154463003661707E-01
-5.9639830540740491E-01
-5.9451392404903081E-01
-5.8547302769358989E-01
QETSC: Iter time (min)       =     3   0.91
QETSC: Iter time (max)       =     3   0.92
QETSC: Iter time (avg)       =     3   0.92
QETSC: Bin scores            =     3   1.24   0.76
QETSC: Empty bins            =     3           2
QETSC: Max,min eigs          =     3           7           1
QETSC: Max,min dists         =     3 6.181E-01 7.504E-05
QETSC: Bad bins              =     3          18          18
QETSC: Max neigs bin         =     3          14
QETSC: Max,min dist bins     =     3          18          12
QETSC: Num. of conv. evals   =     3         256
QETSC: Eigenvalue (1)        =     3  -2.0093293821851521E+00
QETSC: Eigenvalue (nocc)     =     3  -5.8547302769358989E-01
QETSC: Max differrence       =     3   5.6218212438143378E-01
QETSC: Safe iteration        =     3      F
QETSC: Finished iter         =           3
 *****************************************************************
 QETSC: Shifts, inertias         =
 -Infinity     0
    -2.300     0
    -2.263     0
    -2.227     0
    -2.190     0
    -2.154     0
    -2.117     0
    -2.081     0
    -2.044     0
    -2.008     0
    -1.971     3
    -1.935    16
    -1.898    36
    -1.862    60
[...]
       PHION                      1       0.084    0.56
       COMM_BSC                   1       0.001    0.01
       POISON                     1       0.006    0.04
        fft                       2       0.006    0.04
    IterSCF                      13      12.704   84.68
     setup_H                     13       1.405    9.36
      DHSCF                      13       1.404    9.36
       DHSCF3                    13       1.404    9.36
        rhoofd                   13       0.474    3.16
        COMM_BSC                 26       0.126    0.84
        POISON                   13       0.067    0.45
         fft                     26       0.063    0.42
        vmat                     13       0.375    2.50
     compute_dm                  13      11.288   75.23
     MIXER                       12       0.006    0.04
    PostSCF                       1       0.328    2.19
     naefs                        1       0.005    0.04
     kinefsm                      1       0.004    0.03
     nlefsm                       1       0.048    0.32
     DHSCF                        1       0.228    1.52
      DHSCF3                      1       0.103    0.68
       rhoofd                     1       0.040    0.26
       COMM_BSC                   2       0.003    0.02
       POISON                     1       0.005    0.04
        fft                       2       0.005    0.03
       vmat                       1       0.029    0.19
      DHSCF4                      1       0.125    0.83
       REORD                     10       0.000    0.00
       COMM_BSC                   2       0.002    0.01
       dfscf                      1       0.105    0.70
     overfsm                      1       0.004    0.03
     MolMec                       1       0.000    0.00
    state_analysis                1       0.032    0.21
    siesta_move                   1       0.000    0.00
   optical                        1       0.000    0.00
>> End of run:   7-DEC-2016  11:09:03
************************************************************************************************************************
***             WIDEN YOUR WINDOW TO 120 CHARACTERS.  Use 'enscript -r -fCourier9' to print this document            ***
************************************************************************************************************************

---------------------------------------------- PETSc Performance Summary: ----------------------------------------------

/global/homes/k/keceli/siesta-qetsc/Obj-gcc/siesta on a arch-cori-gcc named nid02102 with 64 processors, by keceli Wed Dec  7 11:09:03 2016
Using Petsc Development GIT revision: v3.7.4-1897-g257f32f  GIT Date: 2016-11-03 16:33:24 +0000

                         Max       Max/Min        Avg      Total 
Time (sec):           1.515e+01      1.00001   1.515e+01
Objects:              2.911e+03      1.06241   2.903e+03
Flops:                3.345e+09   1382.14971   3.020e+09  1.933e+11
Flops/sec:            2.208e+08   1382.15382   1.993e+08  1.276e+10
MPI Messages:         1.244e+04      1.29963   1.120e+04  7.171e+05
MPI Message Lengths:  5.218e+07      2.71928   3.069e+03  2.201e+09
MPI Reductions:       8.574e+03      1.00000

Flop counting convention: 1 flop = 1 real number operation of type (multiply/divide/add/subtract)
                            e.g., VecAXPY() for real vectors of length N --> 2N flops
                            and VecAXPY() for complex vectors of length N --> 8N flops

Summary of Stages:   ----- Time ------  ----- Flops -----  --- Messages ---  -- Message Lengths --  -- Reductions --
                        Avg     %Total     Avg     %Total   counts   %Total     Avg         %Total   counts   %Total 
 0:      Main Stage: 8.3260e-05   0.0%  0.0000e+00   0.0%  0.000e+00   0.0%  0.000e+00        0.0%  0.000e+00   0.0% 
 1:     siesta_init: 4.5297e-01   3.0%  0.0000e+00   0.0%  0.000e+00   0.0%  0.000e+00        0.0%  0.000e+00   0.0% 
 2:   siesta_forces: 1.5915e+00  10.5%  0.0000e+00   0.0%  0.000e+00   0.0%  0.000e+00        0.0%  0.000e+00   0.0% 
 3:    siesta_solve: 2.6309e-04   0.0%  0.0000e+00   0.0%  0.000e+00   0.0%  0.000e+00        0.0%  0.000e+00   0.0% 
 4:    siesta2qetsc: 2.9823e-02   0.2%  0.0000e+00   0.0%  1.174e+04   1.6%  7.402e-01        0.0%  6.900e+01   0.8% 
 5: qetsc_setup_eps: 7.9531e-01   5.2%  1.5490e+08   0.1%  2.827e+05  39.4%  2.994e+03       97.5%  5.000e+01   0.6% 
 6: qetsc_solve_eps: 9.7910e+00  64.6%  1.9312e+11  99.9%  1.638e+03   0.2%  1.370e-02        0.0%  1.060e+02   1.2% 
 7:   qetsc_eigvals: 2.0991e-04   0.0%  0.0000e+00   0.0%  0.000e+00   0.0%  0.000e+00        0.0%  0.000e+00   0.0% 
 8:   qetsc_density: 6.4486e-01   4.3%  0.0000e+00   0.0%  4.210e+05  58.7%  7.477e+01        2.4%  8.348e+03  97.4% 
10:     siesta_misc: 1.6361e+00  10.8%  0.0000e+00   0.0%  0.000e+00   0.0%  0.000e+00        0.0%  0.000e+00   0.0% 
11:     qetsc_clean: 1.1146e-02   0.1%  0.0000e+00   0.0%  0.000e+00   0.0%  0.000e+00        0.0%  0.000e+00   0.0% 
12:     siesta_move: 1.2726e-05   0.0%  0.0000e+00   0.0%  0.000e+00   0.0%  0.000e+00        0.0%  0.000e+00   0.0% 
13: siesta_analysis: 1.1612e-03   0.0%  0.0000e+00   0.0%  0.000e+00   0.0%  0.000e+00        0.0%  0.000e+00   0.0% 
14:      siesta_end: 1.9723e-01   1.3%  0.0000e+00   0.0%  0.000e+00   0.0%  0.000e+00        0.0%  0.000e+00   0.0% 

------------------------------------------------------------------------------------------------------------------------
See the 'Profiling' chapter of the users' manual for details on interpreting output.
Phase summary info:
   Count: number of times phase was executed
   Time and Flops: Max - maximum over all processors
                   Ratio - ratio of maximum to minimum over all processors
   Mess: number of messages sent
   Avg. len: average message length (bytes)
   Reduct: number of global reductions
   Global: entire computation
   Stage: stages of a computation. Set stages with PetscLogStagePush() and PetscLogStagePop().
      %T - percent time in this phase         %F - percent flops in this phase
      %M - percent messages in this phase     %L - percent message lengths in this phase
      %R - percent reductions in this phase
   Total Mflop/s: 10e-6 * (sum of flops over all processors)/(max time over all processors)
------------------------------------------------------------------------------------------------------------------------
Event                Count      Time (sec)     Flops                             --- Global ---  --- Stage ---   Total
                   Max Ratio  Max     Ratio   Max  Ratio  Mess   Avg len Reduct  %T %F %M %L %R  %T %F %M %L %R Mflop/s
------------------------------------------------------------------------------------------------------------------------

--- Event Stage 0: Main Stage


--- Event Stage 1: siesta_init


--- Event Stage 2: siesta_forces


--- Event Stage 3: siesta_solve


--- Event Stage 4: siesta2qetsc

MatConvert             2 1.0 2.0313e-04 1.5 0.00e+00 0.0 0.0e+00 0.0e+00 0.0e+00  0  0  0  0  0   1  0  0  0  0     0
MatAssemblyBegin      14 1.0 1.2689e-0212.4 0.00e+00 0.0 0.0e+00 0.0e+00 5.6e+01  0  0  0  0  1  27  0  0  0 81     0
MatAssemblyEnd        14 1.0 2.2500e-03 1.1 0.00e+00 0.0 1.2e+04 4.5e+01 1.1e+01  0  0  2  0  0   7  0100100 16     0
VecSet                 3 1.0 5.9605e-06 3.1 0.00e+00 0.0 0.0e+00 0.0e+00 0.0e+00  0  0  0  0  0   0  0  0  0  0     0

--- Event Stage 5: qetsc_setup_eps

MatCholFctrSym         1 1.0 5.5933e-02 1.1 0.00e+00 0.0 0.0e+00 0.0e+00 0.0e+00  0  0  0  0  0   7  0  0  0  0     0
MatCholFctrNum         4 1.0 4.0737e-01 1.1 0.00e+00 0.0 0.0e+00 0.0e+00 0.0e+00  3  0  0  0  0  50  0  0  0  0     0
MatCopy               14 1.0 2.4541e-02 1.2 0.00e+00 0.0 0.0e+00 0.0e+00 0.0e+00  0  0  0  0  0   3  0  0  0  0     0
MatConvert             4 1.0 7.4573e-03 3.2 0.00e+00 0.0 0.0e+00 0.0e+00 0.0e+00  0  0  0  0  0   1  0  0  0  0     0
MatScale              24 1.0 4.9241e-03 2.0 2.42e+06 1.0 0.0e+00 0.0e+00 0.0e+00  0  0  0  0  0   0100  0  0  0 31459
MatAssemblyBegin      21 1.0 1.3590e-05 4.4 0.00e+00 0.0 0.0e+00 0.0e+00 0.0e+00  0  0  0  0  0   0  0  0  0  0     0
MatAssemblyEnd        21 1.0 5.4431e-03 1.9 0.00e+00 0.0 0.0e+00 0.0e+00 0.0e+00  0  0  0  0  0   1  0  0  0  0     0
MatGetRow          16192 1.0 1.5623e-02 1.1 0.00e+00 0.0 0.0e+00 0.0e+00 0.0e+00  0  0  0  0  0   2  0  0  0  0     0
MatGetRowIJ            1 1.0 1.1921e-06 0.0 0.00e+00 0.0 0.0e+00 0.0e+00 0.0e+00  0  0  0  0  0   0  0  0  0  0     0
MatGetSubMatrice      14 1.0 2.2914e-01 1.6 0.00e+00 0.0 2.8e+05 7.6e+03 2.8e+01  1  0 39 98  0  26  0100100 56     0
MatGetOrdering         1 1.0 2.0981e-05 1.8 0.00e+00 0.0 0.0e+00 0.0e+00 0.0e+00  0  0  0  0  0   0  0  0  0  0     0
MatZeroEntries         3 1.0 1.6847e-03 1.0 0.00e+00 0.0 0.0e+00 0.0e+00 0.0e+00  0  0  0  0  0   0  0  0  0  0     0
MatAXPY               16 1.0 5.6393e-02 1.1 0.00e+00 0.0 0.0e+00 0.0e+00 0.0e+00  0  0  0  0  0   7  0  0  0  0     0
MatRedundantMat       14 1.0 2.3846e-01 1.6 0.00e+00 0.0 2.8e+05 7.6e+03 2.8e+01  1  0 39 98  0  27  0100100 56     0
VecSet                16 1.0 2.5916e-04 1.8 0.00e+00 0.0 0.0e+00 0.0e+00 0.0e+00  0  0  0  0  0   0  0  0  0  0     0
EPSSetUp               4 1.0 6.1595e-01 1.0 0.00e+00 0.0 4.1e+04 7.5e+03 2.4e+01  4  0  6 14  0  76  0 14 14 48     0
STSetUp                8 1.0 5.3564e-01 1.0 0.00e+00 0.0 0.0e+00 0.0e+00 2.0e+00  3  0  0  0  0  66  0  0  0  4     0
KSPSetUp               4 1.0 6.9141e-06 0.0 0.00e+00 0.0 0.0e+00 0.0e+00 0.0e+00  0  0  0  0  0   0  0  0  0  0     0
PCSetUp                4 1.0 4.6340e-01 1.0 0.00e+00 0.0 0.0e+00 0.0e+00 0.0e+00  3  0  0  0  0  57  0  0  0  0     0

--- Event Stage 6: qetsc_solve_eps

MatMult             3236 0.0 1.7755e+00 0.0 2.60e+09 0.0 0.0e+00 0.0e+00 0.0e+00 10 78  0  0  0  16 78  0  0  0 84562
MatSolve            1145 0.0 6.0874e+00 0.0 0.00e+00 0.0 0.0e+00 0.0e+00 0.0e+00 36  0  0  0  0  56  0  0  0  0     0
MatCholFctrNum        13 1.1 1.3320e+00 1.1 0.00e+00 0.0 0.0e+00 0.0e+00 0.0e+00  9  0  0  0  0  13  0  0  0  0     0
MatCopy               13 1.1 9.1749e-02 1.3 0.00e+00 0.0 0.0e+00 0.0e+00 0.0e+00  1  0  0  0  0   1  0  0  0  0     0
MatAssemblyBegin      26 1.1 1.0014e-0510.5 0.00e+00 0.0 0.0e+00 0.0e+00 0.0e+00  0  0  0  0  0   0  0  0  0  0     0
MatAssemblyEnd        26 1.1 7.9646e-03 1.7 0.00e+00 0.0 0.0e+00 0.0e+00 0.0e+00  0  0  0  0  0   0  0  0  0  0     0
MatGetRow          57408 1.1 6.0063e-02 1.2 0.00e+00 0.0 0.0e+00 0.0e+00 0.0e+00  0  0  0  0  0   1  0  0  0  0     0
MatZeroEntries        13 1.1 7.1783e-03 1.1 0.00e+00 0.0 0.0e+00 0.0e+00 0.0e+00  0  0  0  0  0   0  0  0  0  0     0
MatAXPY               13 1.1 1.6706e-01 1.1 0.00e+00 0.0 0.0e+00 0.0e+00 0.0e+00  1  0  0  0  0   2  0  0  0  0     0
VecDot                92 0.0 2.3985e-04 0.0 2.71e+05 0.0 0.0e+00 0.0e+00 0.0e+00  0  0  0  0  0   0  0  0  0  0 40835
VecCopy             1158 0.0 1.5450e-03 0.0 0.00e+00 0.0 0.0e+00 0.0e+00 0.0e+00  0  0  0  0  0   0  0  0  0  0     0
VecSet              4471114.6 2.1352e-02295.6 0.00e+00 0.0 0.0e+00 0.0e+00 0.0e+00  0  0  0  0  0   0  0  0  0  0     0
VecSetRandom          13 0.0 6.7806e-04 0.0 0.00e+00 0.0 0.0e+00 0.0e+00 0.0e+00  0  0  0  0  0   0  0  0  0  0     0
EPSSetUp              13 1.0 1.7198e+00 1.0 0.00e+00 0.0 1.6e+03 6.0e+00 2.8e+01 11  0  0  0  0  17  0100100 26     0
EPSSolve              13 1.0 9.8398e+00 1.0 3.34e+09 0.0 1.6e+03 6.0e+00 1.1e+02 65100  0  0  1 100100100100100 19627
STSetUp               22 1.0 1.0969e+00 1.0 0.00e+00 0.0 0.0e+00 0.0e+00 0.0e+00  7  0  0  0  0  11  0  0  0  0     0
STApply             1145 0.0 6.7024e+00 0.0 9.19e+08 0.0 0.0e+00 0.0e+00 0.0e+00 40 28  0  0  0  62 28  0  0  0  8069
STMatSolve          1145 0.0 6.1183e+00 0.0 0.00e+00 0.0 0.0e+00 0.0e+00 0.0e+00 36  0  0  0  0  56  0  0  0  0     0
KSPSetUp              13 1.1 1.3590e-0514.2 0.00e+00 0.0 0.0e+00 0.0e+00 0.0e+00  0  0  0  0  0   0  0  0  0  0     0
KSPSolve            1145 0.0 6.1029e+00 0.0 0.00e+00 0.0 0.0e+00 0.0e+00 0.0e+00 36  0  0  0  0  56  0  0  0  0     0
PCSetUp               13 1.1 1.3321e+00 1.1 0.00e+00 0.0 0.0e+00 0.0e+00 0.0e+00  9  0  0  0  0  13  0  0  0  0     0
PCApply             1145 0.0 6.0900e+00 0.0 0.00e+00 0.0 0.0e+00 0.0e+00 0.0e+00 36  0  0  0  0  56  0  0  0  0     0
BVCreate              2727.0 8.7986e-0342.9 0.00e+00 0.0 0.0e+00 0.0e+00 2.0e+00  0  0  0  0  0   0  0  0  0  2     0
BVCopy                13 0.0 3.6716e-05 0.0 0.00e+00 0.0 0.0e+00 0.0e+00 0.0e+00  0  0  0  0  0   0  0  0  0  0     0
BVMultVec           2089 0.0 4.1194e-02 0.0 2.48e+08 0.0 0.0e+00 0.0e+00 0.0e+00  0  7  0  0  0   0  7  0  0  0 335357
BVMultInPlace         13 0.0 1.4987e-02 0.0 2.45e+08 0.0 0.0e+00 0.0e+00 0.0e+00  0  8  0  0  0   0  8  0  0  0 994459
BVDotVec            2089 0.0 1.2963e+00 0.0 1.93e+09 0.0 0.0e+00 0.0e+00 0.0e+00  7 56  0  0  0  11 56  0  0  0 82966
BVOrthogonalizeV    1053 0.0 1.3416e+00 0.0 2.18e+09 0.0 0.0e+00 0.0e+00 0.0e+00  8 63  0  0  0  12 63  0  0  0 90460
BVScale             1145 0.0 1.4989e-03 0.0 1.69e+06 0.0 0.0e+00 0.0e+00 0.0e+00  0  0  0  0  0   0  0  0  0  0 66188
BVNormVec             92 0.0 4.5952e-02 0.0 7.41e+07 0.0 0.0e+00 0.0e+00 0.0e+00  0  1  0  0  0   0  1  0  0  0 58324
BVSetRandom           13 0.0 7.0047e-04 0.0 0.00e+00 0.0 0.0e+00 0.0e+00 0.0e+00  0  0  0  0  0   0  0  0  0  0     0
DSSolve               13 0.0 2.8090e-02 0.0 0.00e+00 0.0 0.0e+00 0.0e+00 0.0e+00  0  0  0  0  0   0  0  0  0  0     0
DSVectors           1040 0.0 3.4356e-04 0.0 0.00e+00 0.0 0.0e+00 0.0e+00 0.0e+00  0  0  0  0  0   0  0  0  0  0     0
DSOther               13 0.0 4.7565e-04 0.0 0.00e+00 0.0 0.0e+00 0.0e+00 0.0e+00  0  0  0  0  0   0  0  0  0  0     0

--- Event Stage 7: qetsc_eigvals


--- Event Stage 8: qetsc_density

VecCopy             3328 1.0 6.9594e-04 1.3 0.00e+00 0.0 0.0e+00 0.0e+00 0.0e+00  0  0  0  0  0   0  0  0  0  0     0
VecSet                 1 1.0 9.0599e-06 9.5 0.00e+00 0.0 0.0e+00 0.0e+00 0.0e+00  0  0  0  0  0   0  0  0  0  0     0
VecScatterBegin     6656 1.0 1.5563e-01 1.1 0.00e+00 0.0 2.1e+05 1.8e+02 3.3e+03  1  0 29  2 39  23  0 50 72 40     0
VecScatterEnd       3328 1.0 3.5424e-01 1.1 0.00e+00 0.0 0.0e+00 0.0e+00 0.0e+00  2  0  0  0  0  52  0  0  0  0     0
BVCopy              3328 1.0 2.0263e-03 1.2 0.00e+00 0.0 0.0e+00 0.0e+00 0.0e+00  0  0  0  0  0   0  0  0  0  0     0

--- Event Stage 9: Unknown


--- Event Stage 10: siesta_misc


--- Event Stage 11: qetsc_clean


--- Event Stage 12: siesta_move


--- Event Stage 13: siesta_analysis


--- Event Stage 14: siesta_end

------------------------------------------------------------------------------------------------------------------------

Memory usage is given in bytes:

Object Type          Creations   Destructions     Memory  Descendants' Mem.
Reports information only for process 0.

--- Event Stage 0: Main Stage


--- Event Stage 1: siesta_init


--- Event Stage 2: siesta_forces


--- Event Stage 3: siesta_solve


--- Event Stage 4: siesta2qetsc

              Matrix     9              0            0     0.
              Vector    19              1         1648     0.
      Vector Scatter     4              0            0     0.
           Index Set     4              4        17728     0.

--- Event Stage 5: qetsc_setup_eps

              Matrix    12              4     12588596     0.
              Vector    33             15       128904     0.
           Index Set    36             29        22736     0.
          EPS Solver     2              0            0     0.
  Spectral Transform     2              0            0     0.
       Krylov Solver     2              0            0     0.
      Preconditioner     2              0            0     0.
       Basis Vectors     6              3         3168     0.
         PetscRandom     1              0            0     0.
              Region     2              0            0     0.
       Direct Solver     2              0            0     0.

--- Event Stage 6: qetsc_solve_eps

              Matrix    12             12     38975952     0.
              Vector    66             66       607704     0.
       Basis Vectors    13             13        13728     0.

--- Event Stage 7: qetsc_eigvals


--- Event Stage 8: qetsc_density

              Vector    14             13       174512     0.
      Vector Scatter   833            832       894296     0.
           Index Set  1665           1665      1458448     0.

--- Event Stage 9: Unknown


--- Event Stage 10: siesta_misc


--- Event Stage 11: qetsc_clean

              Matrix     0             17     24539072     0.
              Vector     0             37      1187288     0.
      Vector Scatter     0              5         4944     0.
           Index Set     0              7        11376     0.
          EPS Solver     0              2        21784     0.
  Spectral Transform     0              2         1632     0.
       Krylov Solver     0              2         2336     0.
      Preconditioner     0              2         1952     0.
       Basis Vectors     0              3         3168     0.
         PetscRandom     0              1          638     0.
              Region     0              2         1312     0.
       Direct Solver     0              2       109992     0.

--- Event Stage 12: siesta_move


--- Event Stage 13: siesta_analysis


--- Event Stage 14: siesta_end

              Viewer     1              0            0     0.
========================================================================================================================
Average time to get PetscTime(): 4.05312e-07
Average time for MPI_Barrier(): 1.00136e-05
Average time for zero size MPI_Send(): 3.39001e-06
#PETSc Option Table entries:
-eps_interval -2.3,0.
-eps_krylovschur_detect_zeros 0
-eps_krylovschur_partitions 64
-ioptbin 7
-ioptdensity 0
-ioptinertia 1
-ioptleft 2
-log_view
-mat_mumps_cntl_3 1e-12
-mat_mumps_icntl_13 1
-mat_mumps_icntl_23 3000
-mat_mumps_icntl_24 1
-mat_mumps_icntl_28 1
-mat_mumps_icntl_7 5
-mat_type mpisbaij
-roptbuffer 0.01
-roptdiff 0.1
-writeeigs 1
#End of PETSc Option Table entries
Compiled without FORTRAN kernels
Compiled with full precision matrices (default)
sizeof(short) 2 sizeof(int) 4 sizeof(long) 8 sizeof(void*) 8 sizeof(PetscScalar) 8 sizeof(PetscInt) 4
Configure options: --COPTFLAGS="-O3 -g" --CXXOPTFLAGS="-O3 -g" --FOPTFLAGS="-O3 -g" --download-mumps --download-metis --download-parmetis --download-ptscotch=1 --download-scalapack=1 --with-cc=cc --with-clib-autodetect=0 --with-cxx=CC --with-cxxlib-autodetect=0 --with-debugging=0 --with-fc=ftn --with-fortranlib-autodetect=0 --with-mpiexec=srun --with-ssl=0 --with-x=0
-----------------------------------------
Libraries compiled on Thu Nov 24 23:08:27 2016 on cori03 
Machine characteristics: Linux-3.12.60-52.57.1.11767.0.PTF.996988-default-x86_64-with-SuSE-12-x86_64
Using PETSc directory: /global/homes/k/keceli/petsc
Using PETSc arch: arch-cori-gcc
-----------------------------------------

Using C compiler: cc   -O3 -g  ${COPTFLAGS} ${CFLAGS}
Using Fortran compiler: ftn  -O3 -g   ${FOPTFLAGS} ${FFLAGS} 
-----------------------------------------

Using include paths: -I/global/homes/k/keceli/petsc/arch-cori-gcc/include -I/global/homes/k/keceli/petsc/include -I/global/homes/k/keceli/petsc/include -I/global/homes/k/keceli/petsc/arch-cori-gcc/include
-----------------------------------------

Using C linker: cc
Using Fortran linker: ftn
Using libraries: -Wl,-rpath,/global/homes/k/keceli/petsc/arch-cori-gcc/lib -L/global/homes/k/keceli/petsc/arch-cori-gcc/lib -lpetsc -Wl,-rpath,/global/homes/k/keceli/petsc/arch-cori-gcc/lib -L/global/homes/k/keceli/petsc/arch-cori-gcc/lib -lcmumps -ldmumps -lsmumps -lzmumps -lmumps_common -lpord -lscalapack -lparmetis -lmetis -lptesmumps -lptscotch -lptscotcherr -lscotch -lscotcherr -lrt -lm -lpthread -lz -ldl 
-----------------------------------------

