Siesta Version: siesta-trunk-492
Architecture  : x86_64-unknown-linux-gnu--unknown
Compiler flags: ftn -g -O3  -ffast-math -funroll-loops -I/global/homes/k/keceli/petsc/includee -I/global/homes/k/keceli/petsc/arch-cori-gcc/include -I/global/homes/k/keceli/slepcfork/arch-cori-gcc/include -I/global/homes/k/keceli/slepcfork/include
PP flags      : -DMPI -DFC_HAVE_FLUSH -DFC_HAVE_ABORT 
PARALLEL version

* Running on  512 nodes in parallel
>> Start of run:   7-DEC-2016  12:28:48

                           ***********************       
                           *  WELCOME TO SIESTA  *       
                           ***********************       
WARNING: Siesta is reading its input from file INPUT_DEBUG

reinit: -----------------------------------------------------------------------
reinit: System Name: liquid_D2O_256
reinit: -----------------------------------------------------------------------
reinit: System Label: D2O_256                                                     
reinit: -----------------------------------------------------------------------

initatom: Reading input for the pseudopotentials and atomic orbitals ----------
Species number:   1 Atomic number:    8 Label: O
Species number:   2 Atomic number:    1 Label: H

Ground state valence configuration:   2s02  2p04
Reading pseudopotential information in formatted form from O.psf

Valence configuration for pseudopotential generation:
2s( 2.00) rc: 1.14
2p( 4.00) rc: 1.14
3d( 0.00) rc: 1.14
4f( 0.00) rc: 1.14
Ground state valence configuration:   1s01
Reading pseudopotential information in formatted form from H.psf

Valence configuration for pseudopotential generation:
1s( 0.60) rc: 1.25
2p( 0.00) rc: 1.25
3d( 0.00) rc: 1.25
4f( 0.00) rc: 1.25
For O, standard SIESTA heuristics set lmxkb to 3
 (one more than the basis l, including polarization orbitals).
Use PS.lmax or PS.KBprojectors blocks to override.
For H, standard SIESTA heuristics set lmxkb to 2
 (one more than the basis l, including polarization orbitals).
Use PS.lmax or PS.KBprojectors blocks to override.

<basis_specs>
===============================================================================
O                    Z=   8    Mass=  16.000        Charge=-0.24233    
Lmxo=2 Lmxkb= 3    BasisType=split      Semic=F
L=0  Nsemic=0  Cnfigmx=2
          n=1  nzeta=2  polorb=0
            splnorm:   0.15000    
               vcte:    23.361    
               rinn:    3.3972    
               qcoe:    0.0000    
               qyuk:    0.0000    
               qwid:   0.10000E-01
                rcs:    4.5077      2.6407    
            lambdas:    1.0000      1.0000    
L=1  Nsemic=0  Cnfigmx=2
          n=1  nzeta=2  polorb=0
            splnorm:   0.15000    
               vcte:    2.7833    
               rinn:    5.1425    
               qcoe:    0.0000    
               qyuk:    0.0000    
               qwid:   0.10000E-01
                rcs:    6.1500      2.5936    
            lambdas:    1.0000      1.0000    
L=2  Nsemic=0  Cnfigmx=3
          n=1  nzeta=1  polorb=0
            splnorm:   0.15000    
               vcte:    63.982    
               rinn:   0.16104    
               qcoe:    0.0000    
               qyuk:    0.0000    
               qwid:   0.10000E-01
                rcs:    3.5440    
            lambdas:    1.0000    
-------------------------------------------------------------------------------
L=0  Nkbl=1  erefs: 0.17977+309
L=1  Nkbl=1  erefs: 0.17977+309
L=2  Nkbl=1  erefs: 0.17977+309
L=3  Nkbl=1  erefs: 0.17977+309
===============================================================================
</basis_specs>

atom: Called for O                     (Z =   8)

read_vps: Pseudopotential generation method:
read_vps: ATM3      Troullier-Martins                       
Total valence charge:    6.00000

read_vps: Pseudopotential includes a core correction:
read_vps: Pseudo-core for xc-correction

xc_check: Exchange-correlation functional:
xc_check: GGA Perdew, Burke & Ernzerhof 1996
V l=0 = -2*Zval/r beyond r=  1.1278
V l=1 = -2*Zval/r beyond r=  1.1278
V l=2 = -2*Zval/r beyond r=  1.1278
V l=3 = -2*Zval/r beyond r=  1.1278
All V_l potentials equal beyond r=  1.1278
This should be close to max(r_c) in ps generation
All pots = -2*Zval/r beyond r=  1.1278

VLOCAL1: 99.0% of the norm of Vloc inside     34.126 Ry
VLOCAL1: 99.9% of the norm of Vloc inside     77.774 Ry
atom: Maximum radius for 4*pi*r*r*local-pseudopot. charge    1.37759
atom: Maximum radius for r*vlocal+2*Zval:    1.18566
GHOST: No ghost state for L =  0
GHOST: No ghost state for L =  1
GHOST: No ghost state for L =  2
GHOST: No ghost state for L =  3

KBgen: Kleinman-Bylander projectors: 
   l= 0   rc=  1.262145   el= -1.757696   Ekb=  9.253654   kbcos=  0.328369
   l= 1   rc=  1.262145   el= -0.664256   Ekb= -7.897175   kbcos= -0.393093
   l= 2   rc=  1.343567   el=  0.002031   Ekb= -1.922379   kbcos= -0.003517
   l= 3   rc=  1.394919   el=  0.003153   Ekb= -0.738278   kbcos= -0.000358

KBgen: Total number of  Kleinman-Bylander projectors:   16
atom: -------------------------------------------------------------------------

atom: SANKEY-TYPE ORBITALS:
atom: Selected multiple-zeta basis: split     

atom: basis set generated (by rescaling the valence charge)
atom: for an anion of charge  -0.2423

SPLIT: Orbitals with angular momentum L= 0

SPLIT: Basis orbitals for state 2s

   izeta = 1
                 lambda =    1.000000
                     rc =    4.574469
                 energy =   -1.754694
                kinetic =    1.490893
    potential(screened) =   -3.245588
       potential(ionic) =  -11.054474

   izeta = 2
                 rmatch =    2.639108
              splitnorm =    0.147036
                 energy =   -1.549986
                kinetic =    2.329570
    potential(screened) =   -3.879556
       potential(ionic) =  -12.328390

SPLIT: Orbitals with angular momentum L= 1

SPLIT: Basis orbitals for state 2p

   izeta = 1
                 lambda =    1.000000
                     rc =    6.174996
                 energy =   -0.657397
                kinetic =    4.283704
    potential(screened) =   -4.941101
       potential(ionic) =  -12.288569

   izeta = 2
                 rmatch =    2.639108
              splitnorm =    0.214885
                 energy =   -0.410839
                kinetic =    7.128014
    potential(screened) =   -7.538853
       potential(ionic) =  -16.113011

SPLIT: Orbitals with angular momentum L= 2

SPLIT: Basis orbitals for state 3d

   izeta = 1
                 lambda =    1.000000
                     rc =    3.562532
                 energy =    3.658838
                kinetic =    6.488135
    potential(screened) =   -2.829297
       potential(ionic) =  -10.001422
atom: Total number of Sankey-type orbitals: 13

atm_pop: Valence configuration (for local Pseudopot. screening):
 2s( 2.00)                                                            
 2p( 4.00)                                                            
 3d( 0.00)                                                            
Vna: chval, zval:    6.00000   6.00000

Vna:  Cut-off radius for the neutral-atom potential:   6.174996
comcore: Pseudo-core radius Rcore=  1.377587

atom: _________________________________________________________________________

<basis_specs>
===============================================================================
H                    Z=   1    Mass=  1.0100        Charge= 0.46527    
Lmxo=1 Lmxkb= 2    BasisType=split      Semic=F
L=0  Nsemic=0  Cnfigmx=1
          n=1  nzeta=2  polorb=0
            splnorm:   0.15000    
               vcte:    99.931    
               rinn:    2.5993    
               qcoe:    0.0000    
               qyuk:    0.0000    
               qwid:   0.10000E-01
                rcs:    4.2036      1.8446    
            lambdas:    1.0000      1.0000    
L=1  Nsemic=0  Cnfigmx=2
          n=1  nzeta=1  polorb=0
            splnorm:   0.15000    
               vcte:    24.565    
               rinn:    2.2023    
               qcoe:    0.0000    
               qyuk:    0.0000    
               qwid:   0.10000E-01
                rcs:    3.5282    
            lambdas:    1.0000    
-------------------------------------------------------------------------------
L=0  Nkbl=1  erefs: 0.17977+309
L=1  Nkbl=1  erefs: 0.17977+309
L=2  Nkbl=1  erefs: 0.17977+309
===============================================================================
</basis_specs>

atom: Called for H                     (Z =   1)

read_vps: Pseudopotential generation method:
read_vps: ATM 3.2.2 Troullier-Martins                       
Total valence charge:    0.60000

atom: Pseudopotential generated from an ionic configuration
atom: with net charge 0.40

xc_check: Exchange-correlation functional:
xc_check: GGA Perdew, Burke & Ernzerhof 1996
xc_check: WARNING: Pseudopotential generated with GGA revPBE functional
V l=0 = -2*Zval/r beyond r=  1.2343
V l=1 = -2*Zval/r beyond r=  1.2189
V l=2 = -2*Zval/r beyond r=  1.2189
All V_l potentials equal beyond r=  1.2343
This should be close to max(r_c) in ps generation
All pots = -2*Zval/r beyond r=  1.2343

VLOCAL1: 99.0% of the norm of Vloc inside     28.493 Ry
VLOCAL1: 99.9% of the norm of Vloc inside     64.935 Ry
atom: Maximum radius for 4*pi*r*r*local-pseudopot. charge    1.45251
atom: Maximum radius for r*vlocal+2*Zval:    1.21892
GHOST: No ghost state for L =  0
GHOST: No ghost state for L =  1
GHOST: No ghost state for L =  2

KBgen: Kleinman-Bylander projectors: 
   l= 0   rc=  1.364359   el= -0.835481   Ekb= -2.050473   kbcos= -0.374935
   l= 1   rc=  1.434438   el= -0.083696   Ekb= -0.439790   kbcos= -0.040392
   l= 2   rc=  1.470814   el= -0.018512   Ekb= -0.135383   kbcos= -0.004767

KBgen: Total number of  Kleinman-Bylander projectors:    9
atom: -------------------------------------------------------------------------

atom: SANKEY-TYPE ORBITALS:
atom: Selected multiple-zeta basis: split     

atom: basis set generated (by rescaling the valence charge)
atom: for a cation of charge   0.4653

SPLIT: Orbitals with angular momentum L= 0

SPLIT: Basis orbitals for state 1s

   izeta = 1
                 lambda =    1.000000
                     rc =    4.260636
                 energy =   -0.844786
                kinetic =    1.360018
    potential(screened) =   -2.204804
       potential(ionic) =   -2.290935

   izeta = 2
                 rmatch =    1.865767
              splitnorm =    0.575404
                 energy =    0.510436
                kinetic =    4.363202
    potential(screened) =   -3.852766
       potential(ionic) =   -3.849391

SPLIT: Orbitals with angular momentum L= 1

SPLIT: Basis orbitals for state 2p

   izeta = 1
                 lambda =    1.000000
                     rc =    3.576223
                 energy =    0.852340
                kinetic =    2.004908
    potential(screened) =   -1.152567
       potential(ionic) =   -1.298457
atom: Total number of Sankey-type orbitals:  5

atm_pop: Valence configuration (for local Pseudopot. screening):
 1s( 1.00)                                                            
 2p( 0.00)                                                            
Vna: chval, zval:    1.00000   1.00000

Vna:  Cut-off radius for the neutral-atom potential:   4.260636

atom: _________________________________________________________________________

prinput: Basis input ----------------------------------------------------------

PAO.BasisType split     

%block ChemicalSpeciesLabel
    1    8 O                       # Species index, atomic number, species label
    2    1 H                       # Species index, atomic number, species label
%endblock ChemicalSpeciesLabel

%block PAO.Basis                 # Define Basis set
O                     3  -0.242            # Label, l-shells, ionic net charge
 n=2   0   2                         # n, l, Nzeta 
   4.574      2.639   
   1.000      1.000   
 n=2   1   2                         # n, l, Nzeta 
   6.175      2.639   
   1.000      1.000   
 n=3   2   1                         # n, l, Nzeta 
   3.563   
   1.000   
H                     2   0.465            # Label, l-shells, ionic net charge
 n=1   0   2                         # n, l, Nzeta 
   4.261      1.866   
   1.000      1.000   
 n=2   1   1                         # n, l, Nzeta 
   3.576   
   1.000   
%endblock PAO.Basis

prinput: ----------------------------------------------------------------------

coor:   Atomic-coordinates input format  =     Cartesian coordinates
coor:                                          (in Angstroms)

siesta: Atomic coordinates (Bohr) and species
siesta:      3.11805   4.32747  14.55090  1        1
siesta:      2.19208   4.72432  16.06268  2        2
siesta:      1.88973   3.53379  13.47375  2        3
siesta:      9.78879  17.85792  16.42173  1        4
siesta:      8.31480  18.12248  15.40127  2        5
siesta:      9.69430  16.11937  16.91306  2        6
siesta:     12.94463   8.91951   5.14006  1        7
siesta:     12.90683   8.35259   3.42041  2        8
siesta:     14.45641   8.20141   5.82036  2        9
siesta:     10.58247   7.14317  18.42484  1       10
siesta:      9.95886   7.06758  16.72408  2       11
siesta:      9.08959   7.23765  19.42639  2       12
siesta:      0.66140   8.93841  13.68162  1       13
siesta:     -0.98266   9.67540  13.66273  2       14
siesta:      0.49133   7.46442  14.70208  2       15
siesta:      5.74477   0.49133  12.62338  1       16
siesta:      7.23765   0.73699  11.62182  2       17
siesta:      5.27234   2.15429  13.15250  2       18
siesta:      1.37950  17.76343  18.16028  1       19
siesta:     -0.05669  16.70519  17.85792  2       20
siesta:      1.09604  18.48153  19.78544  2       21
siesta:     11.50844  13.81390   5.53690  1       22
siesta:      9.76989  13.62493   5.02667  2       23
siesta:     12.01866  12.15094   6.00933  2       24
siesta:     12.98242  15.26899  10.31791  1       25
siesta:     13.88949  13.88949  11.01711  2       26
siesta:     12.43440  14.66428   8.69274  2       27
siesta:      2.57003   6.84081   9.41084  1       28
siesta:      4.19519   6.31169  10.01555  2       29
siesta:      1.68186   7.36993  10.90372  2       30
siesta:      5.38572   1.02045   3.25033  1       31
siesta:      4.95108   1.54958   1.56847  2       32
siesta:      3.77945   0.86927   4.10071  2       33
siesta:      5.76367  14.32413   3.81725  1       34
siesta:      5.99043  16.10047   3.49599  2       35
siesta:      5.63139  14.19185   5.61249  2       36
siesta:      5.82036   9.78879  15.51466  1       37
siesta:      5.17785  10.37460  17.10203  2       38
siesta:      4.36527   9.75099  14.41862  2       39
siesta:     12.11315   4.72432  12.98242  1       40
siesta:     12.03756   2.92908  13.26588  2       41
siesta:     13.85170   5.06447  12.60448  2       42
siesta:     14.47531   0.00000   4.08181  1       43
siesta:     12.79345  -0.37795   4.62983  2       44
siesta:     14.22964   1.02045   2.60782  2       45
siesta:      9.22187  10.69585  11.69741  1       46
siesta:      8.18252  10.26122  13.11470  2       47
siesta:      9.54312   9.10848  10.86593  2       48
siesta:      2.92908  11.11159   1.28501  1       49
siesta:      3.83615  12.39661   2.15429  2       50
siesta:      1.19053  11.58403   1.45509  2       51
siesta:      2.70231  15.11782  14.17295  1       52
siesta:      1.75745  13.88949  15.09892  2       53
siesta:      2.55113  16.62960  15.17451  2       54
siesta:     15.28789  14.17295  17.02644  1       55
siesta:     15.81701  13.88949  18.72719  2       56
siesta:     13.85170  15.25010  17.17762  2       57
siesta:     17.49887   5.10226  -0.26456  1       58
siesta:     17.57446   5.29124   1.53068  2       59
siesta:     15.94929   4.19519  -0.54802  2       60
siesta:      6.55735   7.21876   2.79680  1       61
siesta:      5.55580   8.73054   2.85349  2       62
siesta:      5.36682   5.87705   3.11805  2       63
siesta:      0.03779   7.19986   4.72432  1       64
siesta:      0.64251   7.42663   6.40617  2       65
siesta:      1.36060   7.88016   3.68497  2       66
siesta:     17.23431   2.66451  11.28167  1       67
siesta:     17.76343   0.94486  11.01711  2       68
siesta:     17.04534   3.34482   9.59981  2       69
siesta:      7.95575   5.68808  10.16673  1       70
siesta:      9.31635   5.31013  11.30057  2       71
siesta:      8.01244   4.36527   8.93841  2       72
siesta:     16.83747  13.54934   3.55269  1       73
siesta:     15.23120  13.47375   4.38417  2       74
siesta:     17.85792  14.56979   4.62983  2       75
siesta:     17.97130  16.00599   9.92107  1       76
siesta:     18.95396  15.68473  11.39505  2       77
siesta:     16.25165  15.94929  10.50688  2       78
siesta:     14.17295  10.84703  13.00132  1       79
siesta:     14.39972  12.20764  14.17295  2       80
siesta:     12.39661  10.82814  12.68007  2       81
siesta:      9.01400   0.69920   6.78412  1       82
siesta:      8.42818  -0.83148   7.54001  2       83
siesta:      8.08803   0.83148   5.23454  2       84
siesta:      6.02823  14.58869   9.16518  1       85
siesta:      7.14317  13.22809   9.63761  2       86
siesta:      5.78256  15.51466  10.69585  2       87
siesta:      0.77479  18.50043   5.53690  1       88
siesta:      0.56692  17.82012   7.19986  2       89
siesta:     -0.90707  18.65160   4.89439  2       90
siesta:     13.03912   2.70231  18.31145  1       91
siesta:     11.98087   4.15740  18.27366  2       92
siesta:     11.99977   1.34171  17.72564  2       93
siesta:      9.63761  12.92573  17.66895  1       94
siesta:      8.18252  12.26433  16.83747  2       95
siesta:     10.48798  11.45174  18.31145  2       96
siesta:     21.74394   4.32747  14.55090  1       97
siesta:     20.81797   4.72432  16.06268  2       98
siesta:     20.51561   3.53379  13.47375  2       99
siesta:     28.41467  17.85792  16.42173  1      100
siesta:     26.94069  18.12248  15.40127  2      101
siesta:     28.32019  16.11937  16.91306  2      102
siesta:     31.57052   8.91951   5.14006  1      103
siesta:     31.53272   8.35259   3.42041  2      104
siesta:     33.08230   8.20141   5.82036  2      105
siesta:     29.20836   7.14317  18.42484  1      106
siesta:     28.58475   7.06758  16.72408  2      107
siesta:     27.71547   7.23765  19.42639  2      108
siesta:     19.28729   8.93841  13.68162  1      109
siesta:     17.64323   9.67540  13.66273  2      110
siesta:     19.11722   7.46442  14.70208  2      111
siesta:     24.37066   0.49133  12.62338  1      112
siesta:     25.86354   0.73699  11.62182  2      113
siesta:     23.89823   2.15429  13.15250  2      114
siesta:     20.00539  17.76343  18.16028  1      115
siesta:     18.56920  16.70519  17.85792  2      116
siesta:     19.72193  18.48153  19.78544  2      117
siesta:     30.13432  13.81390   5.53690  1      118
siesta:     28.39578  13.62493   5.02667  2      119
siesta:     30.64455  12.15094   6.00933  2      120
siesta:     31.60831  15.26899  10.31791  1      121
siesta:     32.51538  13.88949  11.01711  2      122
siesta:     31.06029  14.66428   8.69274  2      123
siesta:     21.19592   6.84081   9.41084  1      124
siesta:     22.82108   6.31169  10.01555  2      125
siesta:     20.30774   7.36993  10.90372  2      126
siesta:     24.01161   1.02045   3.25033  1      127
siesta:     23.57697   1.54958   1.56847  2      128
siesta:     22.40534   0.86927   4.10071  2      129
siesta:     24.38955  14.32413   3.81725  1      130
siesta:     24.61632  16.10047   3.49599  2      131
siesta:     24.25727  14.19185   5.61249  2      132
siesta:     24.44625   9.78879  15.51466  1      133
siesta:     23.80374  10.37460  17.10203  2      134
siesta:     22.99116   9.75099  14.41862  2      135
siesta:     30.73904   4.72432  12.98242  1      136
siesta:     30.66345   2.92908  13.26588  2      137
siesta:     32.47759   5.06447  12.60448  2      138
siesta:     33.10120   0.00000   4.08181  1      139
siesta:     31.41934  -0.37795   4.62983  2      140
siesta:     32.85553   1.02045   2.60782  2      141
siesta:     27.84775  10.69585  11.69741  1      142
siesta:     26.80841  10.26122  13.11470  2      143
siesta:     28.16901   9.10848  10.86593  2      144
siesta:     21.55496  11.11159   1.28501  1      145
siesta:     22.46203  12.39661   2.15429  2      146
siesta:     19.81642  11.58403   1.45509  2      147
siesta:     21.32820  15.11782  14.17295  1      148
siesta:     20.38333  13.88949  15.09892  2      149
siesta:     21.17702  16.62960  15.17451  2      150
siesta:     33.91378  14.17295  17.02644  1      151
siesta:     34.44290  13.88949  18.72719  2      152
siesta:     32.47759  15.25010  17.17762  2      153
siesta:     36.12476   5.10226  -0.26456  1      154
siesta:     36.20035   5.29124   1.53068  2      155
siesta:     34.57518   4.19519  -0.54802  2      156
siesta:     25.18324   7.21876   2.79680  1      157
siesta:     24.18168   8.73054   2.85349  2      158
siesta:     23.99271   5.87705   3.11805  2      159
siesta:     18.66368   7.19986   4.72432  1      160
siesta:     19.26839   7.42663   6.40617  2      161
siesta:     19.98649   7.88016   3.68497  2      162
siesta:     35.86020   2.66451  11.28167  1      163
siesta:     36.38932   0.94486  11.01711  2      164
siesta:     35.67122   3.34482   9.59981  2      165
siesta:     26.58164   5.68808  10.16673  1      166
siesta:     27.94224   5.31013  11.30057  2      167
siesta:     26.63833   4.36527   8.93841  2      168
siesta:     35.46335  13.54934   3.55269  1      169
siesta:     33.85709  13.47375   4.38417  2      170
siesta:     36.48381  14.56979   4.62983  2      171
siesta:     36.59719  16.00599   9.92107  1      172
siesta:     37.57985  15.68473  11.39505  2      173
siesta:     34.87754  15.94929  10.50688  2      174
siesta:     32.79884  10.84703  13.00132  1      175
siesta:     33.02561  12.20764  14.17295  2      176
siesta:     31.02250  10.82814  12.68007  2      177
siesta:     27.63988   0.69920   6.78412  1      178
siesta:     27.05407  -0.83148   7.54001  2      179
siesta:     26.71392   0.83148   5.23454  2      180
siesta:     24.65412  14.58869   9.16518  1      181
siesta:     25.76906  13.22809   9.63761  2      182
siesta:     24.40845  15.51466  10.69585  2      183
siesta:     19.40068  18.50043   5.53690  1      184
siesta:     19.19281  17.82012   7.19986  2      185
siesta:     17.71882  18.65160   4.89439  2      186
siesta:     31.66500   2.70231  18.31145  1      187
siesta:     30.60676   4.15740  18.27366  2      188
siesta:     30.62565   1.34171  17.72564  2      189
siesta:     28.26349  12.92573  17.66895  1      190
siesta:     26.80841  12.26433  16.83747  2      191
siesta:     29.11387  11.45174  18.31145  2      192
siesta:      3.11805  22.95336  14.55090  1      193
siesta:      2.19208  23.35020  16.06268  2      194
siesta:      1.88973  22.15968  13.47375  2      195
siesta:      9.78879  36.48381  16.42173  1      196
siesta:      8.31480  36.74837  15.40127  2      197
siesta:      9.69430  34.74526  16.91306  2      198
siesta:     12.94463  27.54540   5.14006  1      199
siesta:     12.90683  26.97848   3.42041  2      200
siesta:     14.45641  26.82730   5.82036  2      201
siesta:     10.58247  25.76906  18.42484  1      202
siesta:      9.95886  25.69347  16.72408  2      203
siesta:      9.08959  25.86354  19.42639  2      204
siesta:      0.66140  27.56430  13.68162  1      205
siesta:     -0.98266  28.30129  13.66273  2      206
siesta:      0.49133  26.09031  14.70208  2      207
siesta:      5.74477  19.11722  12.62338  1      208
siesta:      7.23765  19.36288  11.62182  2      209
siesta:      5.27234  20.78018  13.15250  2      210
siesta:      1.37950  36.38932  18.16028  1      211
siesta:     -0.05669  35.33107  17.85792  2      212
siesta:      1.09604  37.10742  19.78544  2      213
siesta:     11.50844  32.43979   5.53690  1      214
siesta:      9.76989  32.25082   5.02667  2      215
siesta:     12.01866  30.77683   6.00933  2      216
siesta:     12.98242  33.89488  10.31791  1      217
siesta:     13.88949  32.51538  11.01711  2      218
siesta:     12.43440  33.29017   8.69274  2      219
siesta:      2.57003  25.46670   9.41084  1      220
siesta:      4.19519  24.93758  10.01555  2      221
siesta:      1.68186  25.99582  10.90372  2      222
siesta:      5.38572  19.64634   3.25033  1      223
siesta:      4.95108  20.17546   1.56847  2      224
siesta:      3.77945  19.49516   4.10071  2      225
siesta:      5.76367  32.95002   3.81725  1      226
siesta:      5.99043  34.72636   3.49599  2      227
siesta:      5.63139  32.81774   5.61249  2      228
siesta:      5.82036  28.41467  15.51466  1      229
siesta:      5.17785  29.00049  17.10203  2      230
siesta:      4.36527  28.37688  14.41862  2      231
siesta:     12.11315  23.35020  12.98242  1      232
siesta:     12.03756  21.55496  13.26588  2      233
siesta:     13.85170  23.69036  12.60448  2      234
siesta:     14.47531  18.62589   4.08181  1      235
siesta:     12.79345  18.24794   4.62983  2      236
siesta:     14.22964  19.64634   2.60782  2      237
siesta:      9.22187  29.32174  11.69741  1      238
siesta:      8.18252  28.88710  13.11470  2      239
siesta:      9.54312  27.73437  10.86593  2      240
siesta:      2.92908  29.73748   1.28501  1      241
siesta:      3.83615  31.02250   2.15429  2      242
siesta:      1.19053  30.20991   1.45509  2      243
siesta:      2.70231  33.74370  14.17295  1      244
siesta:      1.75745  32.51538  15.09892  2      245
siesta:      2.55113  35.25548  15.17451  2      246
siesta:     15.28789  32.79884  17.02644  1      247
siesta:     15.81701  32.51538  18.72719  2      248
siesta:     13.85170  33.87598  17.17762  2      249
siesta:     17.49887  23.72815  -0.26456  1      250
siesta:     17.57446  23.91712   1.53068  2      251
siesta:     15.94929  22.82108  -0.54802  2      252
siesta:      6.55735  25.84464   2.79680  1      253
siesta:      5.55580  27.35643   2.85349  2      254
siesta:      5.36682  24.50294   3.11805  2      255
siesta:      0.03779  25.82575   4.72432  1      256
siesta:      0.64251  26.05251   6.40617  2      257
siesta:      1.36060  26.50605   3.68497  2      258
siesta:     17.23431  21.29040  11.28167  1      259
siesta:     17.76343  19.57075  11.01711  2      260
siesta:     17.04534  21.97070   9.59981  2      261
siesta:      7.95575  24.31397  10.16673  1      262
siesta:      9.31635  23.93602  11.30057  2      263
siesta:      8.01244  22.99116   8.93841  2      264
siesta:     16.83747  32.17523   3.55269  1      265
siesta:     15.23120  32.09964   4.38417  2      266
siesta:     17.85792  33.19568   4.62983  2      267
siesta:     17.97130  34.63187   9.92107  1      268
siesta:     18.95396  34.31062  11.39505  2      269
siesta:     16.25165  34.57518  10.50688  2      270
siesta:     14.17295  29.47292  13.00132  1      271
siesta:     14.39972  30.83352  14.17295  2      272
siesta:     12.39661  29.45402  12.68007  2      273
siesta:      9.01400  19.32509   6.78412  1      274
siesta:      8.42818  17.79441   7.54001  2      275
siesta:      8.08803  19.45737   5.23454  2      276
siesta:      6.02823  33.21458   9.16518  1      277
siesta:      7.14317  31.85398   9.63761  2      278
siesta:      5.78256  34.14055  10.69585  2      279
siesta:      0.77479  37.12631   5.53690  1      280
siesta:      0.56692  36.44601   7.19986  2      281
siesta:     -0.90707  37.27749   4.89439  2      282
siesta:     13.03912  21.32820  18.31145  1      283
siesta:     11.98087  22.78329  18.27366  2      284
siesta:     11.99977  19.96759  17.72564  2      285
siesta:      9.63761  31.55162  17.66895  1      286
siesta:      8.18252  30.89022  16.83747  2      287
siesta:     10.48798  30.07763  18.31145  2      288
siesta:     21.74394  22.95336  14.55090  1      289
siesta:     20.81797  23.35020  16.06268  2      290
siesta:     20.51561  22.15968  13.47375  2      291
siesta:     28.41467  36.48381  16.42173  1      292
siesta:     26.94069  36.74837  15.40127  2      293
siesta:     28.32019  34.74526  16.91306  2      294
siesta:     31.57052  27.54540   5.14006  1      295
siesta:     31.53272  26.97848   3.42041  2      296
siesta:     33.08230  26.82730   5.82036  2      297
siesta:     29.20836  25.76906  18.42484  1      298
siesta:     28.58475  25.69347  16.72408  2      299
siesta:     27.71547  25.86354  19.42639  2      300
siesta:     19.28729  27.56430  13.68162  1      301
siesta:     17.64323  28.30129  13.66273  2      302
siesta:     19.11722  26.09031  14.70208  2      303
siesta:     24.37066  19.11722  12.62338  1      304
siesta:     25.86354  19.36288  11.62182  2      305
siesta:     23.89823  20.78018  13.15250  2      306
siesta:     20.00539  36.38932  18.16028  1      307
siesta:     18.56920  35.33107  17.85792  2      308
siesta:     19.72193  37.10742  19.78544  2      309
siesta:     30.13432  32.43979   5.53690  1      310
siesta:     28.39578  32.25082   5.02667  2      311
siesta:     30.64455  30.77683   6.00933  2      312
siesta:     31.60831  33.89488  10.31791  1      313
siesta:     32.51538  32.51538  11.01711  2      314
siesta:     31.06029  33.29017   8.69274  2      315
siesta:     21.19592  25.46670   9.41084  1      316
siesta:     22.82108  24.93758  10.01555  2      317
siesta:     20.30774  25.99582  10.90372  2      318
siesta:     24.01161  19.64634   3.25033  1      319
siesta:     23.57697  20.17546   1.56847  2      320
siesta:     22.40534  19.49516   4.10071  2      321
siesta:     24.38955  32.95002   3.81725  1      322
siesta:     24.61632  34.72636   3.49599  2      323
siesta:     24.25727  32.81774   5.61249  2      324
siesta:     24.44625  28.41467  15.51466  1      325
siesta:     23.80374  29.00049  17.10203  2      326
siesta:     22.99116  28.37688  14.41862  2      327
siesta:     30.73904  23.35020  12.98242  1      328
siesta:     30.66345  21.55496  13.26588  2      329
siesta:     32.47759  23.69036  12.60448  2      330
siesta:     33.10120  18.62589   4.08181  1      331
siesta:     31.41934  18.24794   4.62983  2      332
siesta:     32.85553  19.64634   2.60782  2      333
siesta:     27.84775  29.32174  11.69741  1      334
siesta:     26.80841  28.88710  13.11470  2      335
siesta:     28.16901  27.73437  10.86593  2      336
siesta:     21.55496  29.73748   1.28501  1      337
siesta:     22.46203  31.02250   2.15429  2      338
siesta:     19.81642  30.20991   1.45509  2      339
siesta:     21.32820  33.74370  14.17295  1      340
siesta:     20.38333  32.51538  15.09892  2      341
siesta:     21.17702  35.25548  15.17451  2      342
siesta:     33.91378  32.79884  17.02644  1      343
siesta:     34.44290  32.51538  18.72719  2      344
siesta:     32.47759  33.87598  17.17762  2      345
siesta:     36.12476  23.72815  -0.26456  1      346
siesta:     36.20035  23.91712   1.53068  2      347
siesta:     34.57518  22.82108  -0.54802  2      348
siesta:     25.18324  25.84464   2.79680  1      349
siesta:     24.18168  27.35643   2.85349  2      350
siesta:     23.99271  24.50294   3.11805  2      351
siesta:     18.66368  25.82575   4.72432  1      352
siesta:     19.26839  26.05251   6.40617  2      353
siesta:     19.98649  26.50605   3.68497  2      354
siesta:     35.86020  21.29040  11.28167  1      355
siesta:     36.38932  19.57075  11.01711  2      356
siesta:     35.67122  21.97070   9.59981  2      357
siesta:     26.58164  24.31397  10.16673  1      358
siesta:     27.94224  23.93602  11.30057  2      359
siesta:     26.63833  22.99116   8.93841  2      360
siesta:     35.46335  32.17523   3.55269  1      361
siesta:     33.85709  32.09964   4.38417  2      362
siesta:     36.48381  33.19568   4.62983  2      363
siesta:     36.59719  34.63187   9.92107  1      364
siesta:     37.57985  34.31062  11.39505  2      365
siesta:     34.87754  34.57518  10.50688  2      366
siesta:     32.79884  29.47292  13.00132  1      367
siesta:     33.02561  30.83352  14.17295  2      368
siesta:     31.02250  29.45402  12.68007  2      369
siesta:     27.63988  19.32509   6.78412  1      370
siesta:     27.05407  17.79441   7.54001  2      371
siesta:     26.71392  19.45737   5.23454  2      372
siesta:     24.65412  33.21458   9.16518  1      373
siesta:     25.76906  31.85398   9.63761  2      374
siesta:     24.40845  34.14055  10.69585  2      375
siesta:     19.40068  37.12631   5.53690  1      376
siesta:     19.19281  36.44601   7.19986  2      377
siesta:     17.71882  37.27749   4.89439  2      378
siesta:     31.66500  21.32820  18.31145  1      379
siesta:     30.60676  22.78329  18.27366  2      380
siesta:     30.62565  19.96759  17.72564  2      381
siesta:     28.26349  31.55162  17.66895  1      382
siesta:     26.80841  30.89022  16.83747  2      383
siesta:     29.11387  30.07763  18.31145  2      384
siesta:      3.11805   4.32747  33.17678  1      385
siesta:      2.19208   4.72432  34.68857  2      386
siesta:      1.88973   3.53379  32.09964  2      387
siesta:      9.78879  17.85792  35.04761  1      388
siesta:      8.31480  18.12248  34.02716  2      389
siesta:      9.69430  16.11937  35.53894  2      390
siesta:     12.94463   8.91951  23.76594  1      391
siesta:     12.90683   8.35259  22.04629  2      392
siesta:     14.45641   8.20141  24.44625  2      393
siesta:     10.58247   7.14317  37.05072  1      394
siesta:      9.95886   7.06758  35.34997  2      395
siesta:      9.08959   7.23765  38.05228  2      396
siesta:      0.66140   8.93841  32.30751  1      397
siesta:     -0.98266   9.67540  32.28861  2      398
siesta:      0.49133   7.46442  33.32796  2      399
siesta:      5.74477   0.49133  31.24926  1      400
siesta:      7.23765   0.73699  30.24771  2      401
siesta:      5.27234   2.15429  31.77839  2      402
siesta:      1.37950  17.76343  36.78616  1      403
siesta:     -0.05669  16.70519  36.48381  2      404
siesta:      1.09604  18.48153  38.41133  2      405
siesta:     11.50844  13.81390  24.16279  1      406
siesta:      9.76989  13.62493  23.65256  2      407
siesta:     12.01866  12.15094  24.63522  2      408
siesta:     12.98242  15.26899  28.94380  1      409
siesta:     13.88949  13.88949  29.64300  2      410
siesta:     12.43440  14.66428  27.31863  2      411
siesta:      2.57003   6.84081  28.03673  1      412
siesta:      4.19519   6.31169  28.64144  2      413
siesta:      1.68186   7.36993  29.52961  2      414
siesta:      5.38572   1.02045  21.87622  1      415
siesta:      4.95108   1.54958  20.19436  2      416
siesta:      3.77945   0.86927  22.72660  2      417
siesta:      5.76367  14.32413  22.44314  1      418
siesta:      5.99043  16.10047  22.12188  2      419
siesta:      5.63139  14.19185  24.23838  2      420
siesta:      5.82036   9.78879  34.14055  1      421
siesta:      5.17785  10.37460  35.72792  2      422
siesta:      4.36527   9.75099  33.04450  2      423
siesta:     12.11315   4.72432  31.60831  1      424
siesta:     12.03756   2.92908  31.89177  2      425
siesta:     13.85170   5.06447  31.23037  2      426
siesta:     14.47531   0.00000  22.70770  1      427
siesta:     12.79345  -0.37795  23.25572  2      428
siesta:     14.22964   1.02045  21.23371  2      429
siesta:      9.22187  10.69585  30.32330  1      430
siesta:      8.18252  10.26122  31.74059  2      431
siesta:      9.54312   9.10848  29.49182  2      432
siesta:      2.92908  11.11159  19.91090  1      433
siesta:      3.83615  12.39661  20.78018  2      434
siesta:      1.19053  11.58403  20.08098  2      435
siesta:      2.70231  15.11782  32.79884  1      436
siesta:      1.75745  13.88949  33.72481  2      437
siesta:      2.55113  16.62960  33.80039  2      438
siesta:     15.28789  14.17295  35.65233  1      439
siesta:     15.81701  13.88949  37.35308  2      440
siesta:     13.85170  15.25010  35.80351  2      441
siesta:     17.49887   5.10226  18.36133  1      442
siesta:     17.57446   5.29124  20.15657  2      443
siesta:     15.94929   4.19519  18.07787  2      444
siesta:      6.55735   7.21876  21.42268  1      445
siesta:      5.55580   8.73054  21.47938  2      446
siesta:      5.36682   5.87705  21.74394  2      447
siesta:      0.03779   7.19986  23.35020  1      448
siesta:      0.64251   7.42663  25.03206  2      449
siesta:      1.36060   7.88016  22.31086  2      450
siesta:     17.23431   2.66451  29.90756  1      451
siesta:     17.76343   0.94486  29.64300  2      452
siesta:     17.04534   3.34482  28.22570  2      453
siesta:      7.95575   5.68808  28.79262  1      454
siesta:      9.31635   5.31013  29.92645  2      455
siesta:      8.01244   4.36527  27.56430  2      456
siesta:     16.83747  13.54934  22.17857  1      457
siesta:     15.23120  13.47375  23.01005  2      458
siesta:     17.85792  14.56979  23.25572  2      459
siesta:     17.97130  16.00599  28.54695  1      460
siesta:     18.95396  15.68473  30.02094  2      461
siesta:     16.25165  15.94929  29.13277  2      462
siesta:     14.17295  10.84703  31.62721  1      463
siesta:     14.39972  12.20764  32.79884  2      464
siesta:     12.39661  10.82814  31.30596  2      465
siesta:      9.01400   0.69920  25.41001  1      466
siesta:      8.42818  -0.83148  26.16590  2      467
siesta:      8.08803   0.83148  23.86043  2      468
siesta:      6.02823  14.58869  27.79106  1      469
siesta:      7.14317  13.22809  28.26349  2      470
siesta:      5.78256  15.51466  29.32174  2      471
siesta:      0.77479  18.50043  24.16279  1      472
siesta:      0.56692  17.82012  25.82575  2      473
siesta:     -0.90707  18.65160  23.52028  2      474
siesta:     13.03912   2.70231  36.93734  1      475
siesta:     11.98087   4.15740  36.89955  2      476
siesta:     11.99977   1.34171  36.35153  2      477
siesta:      9.63761  12.92573  36.29483  1      478
siesta:      8.18252  12.26433  35.46335  2      479
siesta:     10.48798  11.45174  36.93734  2      480
siesta:     21.74394   4.32747  33.17678  1      481
siesta:     20.81797   4.72432  34.68857  2      482
siesta:     20.51561   3.53379  32.09964  2      483
siesta:     28.41467  17.85792  35.04761  1      484
siesta:     26.94069  18.12248  34.02716  2      485
siesta:     28.32019  16.11937  35.53894  2      486
siesta:     31.57052   8.91951  23.76594  1      487
siesta:     31.53272   8.35259  22.04629  2      488
siesta:     33.08230   8.20141  24.44625  2      489
siesta:     29.20836   7.14317  37.05072  1      490
siesta:     28.58475   7.06758  35.34997  2      491
siesta:     27.71547   7.23765  38.05228  2      492
siesta:     19.28729   8.93841  32.30751  1      493
siesta:     17.64323   9.67540  32.28861  2      494
siesta:     19.11722   7.46442  33.32796  2      495
siesta:     24.37066   0.49133  31.24926  1      496
siesta:     25.86354   0.73699  30.24771  2      497
siesta:     23.89823   2.15429  31.77839  2      498
siesta:     20.00539  17.76343  36.78616  1      499
siesta:     18.56920  16.70519  36.48381  2      500
siesta:     19.72193  18.48153  38.41133  2      501
siesta:     30.13432  13.81390  24.16279  1      502
siesta:     28.39578  13.62493  23.65256  2      503
siesta:     30.64455  12.15094  24.63522  2      504
siesta:     31.60831  15.26899  28.94380  1      505
siesta:     32.51538  13.88949  29.64300  2      506
siesta:     31.06029  14.66428  27.31863  2      507
siesta:     21.19592   6.84081  28.03673  1      508
siesta:     22.82108   6.31169  28.64144  2      509
siesta:     20.30774   7.36993  29.52961  2      510
siesta:     24.01161   1.02045  21.87622  1      511
siesta:     23.57697   1.54958  20.19436  2      512
siesta:     22.40534   0.86927  22.72660  2      513
siesta:     24.38955  14.32413  22.44314  1      514
siesta:     24.61632  16.10047  22.12188  2      515
siesta:     24.25727  14.19185  24.23838  2      516
siesta:     24.44625   9.78879  34.14055  1      517
siesta:     23.80374  10.37460  35.72792  2      518
siesta:     22.99116   9.75099  33.04450  2      519
siesta:     30.73904   4.72432  31.60831  1      520
siesta:     30.66345   2.92908  31.89177  2      521
siesta:     32.47759   5.06447  31.23037  2      522
siesta:     33.10120   0.00000  22.70770  1      523
siesta:     31.41934  -0.37795  23.25572  2      524
siesta:     32.85553   1.02045  21.23371  2      525
siesta:     27.84775  10.69585  30.32330  1      526
siesta:     26.80841  10.26122  31.74059  2      527
siesta:     28.16901   9.10848  29.49182  2      528
siesta:     21.55496  11.11159  19.91090  1      529
siesta:     22.46203  12.39661  20.78018  2      530
siesta:     19.81642  11.58403  20.08098  2      531
siesta:     21.32820  15.11782  32.79884  1      532
siesta:     20.38333  13.88949  33.72481  2      533
siesta:     21.17702  16.62960  33.80039  2      534
siesta:     33.91378  14.17295  35.65233  1      535
siesta:     34.44290  13.88949  37.35308  2      536
siesta:     32.47759  15.25010  35.80351  2      537
siesta:     36.12476   5.10226  18.36133  1      538
siesta:     36.20035   5.29124  20.15657  2      539
siesta:     34.57518   4.19519  18.07787  2      540
siesta:     25.18324   7.21876  21.42268  1      541
siesta:     24.18168   8.73054  21.47938  2      542
siesta:     23.99271   5.87705  21.74394  2      543
siesta:     18.66368   7.19986  23.35020  1      544
siesta:     19.26839   7.42663  25.03206  2      545
siesta:     19.98649   7.88016  22.31086  2      546
siesta:     35.86020   2.66451  29.90756  1      547
siesta:     36.38932   0.94486  29.64300  2      548
siesta:     35.67122   3.34482  28.22570  2      549
siesta:     26.58164   5.68808  28.79262  1      550
siesta:     27.94224   5.31013  29.92645  2      551
siesta:     26.63833   4.36527  27.56430  2      552
siesta:     35.46335  13.54934  22.17857  1      553
siesta:     33.85709  13.47375  23.01005  2      554
siesta:     36.48381  14.56979  23.25572  2      555
siesta:     36.59719  16.00599  28.54695  1      556
siesta:     37.57985  15.68473  30.02094  2      557
siesta:     34.87754  15.94929  29.13277  2      558
siesta:     32.79884  10.84703  31.62721  1      559
siesta:     33.02561  12.20764  32.79884  2      560
siesta:     31.02250  10.82814  31.30596  2      561
siesta:     27.63988   0.69920  25.41001  1      562
siesta:     27.05407  -0.83148  26.16590  2      563
siesta:     26.71392   0.83148  23.86043  2      564
siesta:     24.65412  14.58869  27.79106  1      565
siesta:     25.76906  13.22809  28.26349  2      566
siesta:     24.40845  15.51466  29.32174  2      567
siesta:     19.40068  18.50043  24.16279  1      568
siesta:     19.19281  17.82012  25.82575  2      569
siesta:     17.71882  18.65160  23.52028  2      570
siesta:     31.66500   2.70231  36.93734  1      571
siesta:     30.60676   4.15740  36.89955  2      572
siesta:     30.62565   1.34171  36.35153  2      573
siesta:     28.26349  12.92573  36.29483  1      574
siesta:     26.80841  12.26433  35.46335  2      575
siesta:     29.11387  11.45174  36.93734  2      576
siesta:      3.11805  22.95336  33.17678  1      577
siesta:      2.19208  23.35020  34.68857  2      578
siesta:      1.88973  22.15968  32.09964  2      579
siesta:      9.78879  36.48381  35.04761  1      580
siesta:      8.31480  36.74837  34.02716  2      581
siesta:      9.69430  34.74526  35.53894  2      582
siesta:     12.94463  27.54540  23.76594  1      583
siesta:     12.90683  26.97848  22.04629  2      584
siesta:     14.45641  26.82730  24.44625  2      585
siesta:     10.58247  25.76906  37.05072  1      586
siesta:      9.95886  25.69347  35.34997  2      587
siesta:      9.08959  25.86354  38.05228  2      588
siesta:      0.66140  27.56430  32.30751  1      589
siesta:     -0.98266  28.30129  32.28861  2      590
siesta:      0.49133  26.09031  33.32796  2      591
siesta:      5.74477  19.11722  31.24926  1      592
siesta:      7.23765  19.36288  30.24771  2      593
siesta:      5.27234  20.78018  31.77839  2      594
siesta:      1.37950  36.38932  36.78616  1      595
siesta:     -0.05669  35.33107  36.48381  2      596
siesta:      1.09604  37.10742  38.41133  2      597
siesta:     11.50844  32.43979  24.16279  1      598
siesta:      9.76989  32.25082  23.65256  2      599
siesta:     12.01866  30.77683  24.63522  2      600
siesta:     12.98242  33.89488  28.94380  1      601
siesta:     13.88949  32.51538  29.64300  2      602
siesta:     12.43440  33.29017  27.31863  2      603
siesta:      2.57003  25.46670  28.03673  1      604
siesta:      4.19519  24.93758  28.64144  2      605
siesta:      1.68186  25.99582  29.52961  2      606
siesta:      5.38572  19.64634  21.87622  1      607
siesta:      4.95108  20.17546  20.19436  2      608
siesta:      3.77945  19.49516  22.72660  2      609
siesta:      5.76367  32.95002  22.44314  1      610
siesta:      5.99043  34.72636  22.12188  2      611
siesta:      5.63139  32.81774  24.23838  2      612
siesta:      5.82036  28.41467  34.14055  1      613
siesta:      5.17785  29.00049  35.72792  2      614
siesta:      4.36527  28.37688  33.04450  2      615
siesta:     12.11315  23.35020  31.60831  1      616
siesta:     12.03756  21.55496  31.89177  2      617
siesta:     13.85170  23.69036  31.23037  2      618
siesta:     14.47531  18.62589  22.70770  1      619
siesta:     12.79345  18.24794  23.25572  2      620
siesta:     14.22964  19.64634  21.23371  2      621
siesta:      9.22187  29.32174  30.32330  1      622
siesta:      8.18252  28.88710  31.74059  2      623
siesta:      9.54312  27.73437  29.49182  2      624
siesta:      2.92908  29.73748  19.91090  1      625
siesta:      3.83615  31.02250  20.78018  2      626
siesta:      1.19053  30.20991  20.08098  2      627
siesta:      2.70231  33.74370  32.79884  1      628
siesta:      1.75745  32.51538  33.72481  2      629
siesta:      2.55113  35.25548  33.80039  2      630
siesta:     15.28789  32.79884  35.65233  1      631
siesta:     15.81701  32.51538  37.35308  2      632
siesta:     13.85170  33.87598  35.80351  2      633
siesta:     17.49887  23.72815  18.36133  1      634
siesta:     17.57446  23.91712  20.15657  2      635
siesta:     15.94929  22.82108  18.07787  2      636
siesta:      6.55735  25.84464  21.42268  1      637
siesta:      5.55580  27.35643  21.47938  2      638
siesta:      5.36682  24.50294  21.74394  2      639
siesta:      0.03779  25.82575  23.35020  1      640
siesta:      0.64251  26.05251  25.03206  2      641
siesta:      1.36060  26.50605  22.31086  2      642
siesta:     17.23431  21.29040  29.90756  1      643
siesta:     17.76343  19.57075  29.64300  2      644
siesta:     17.04534  21.97070  28.22570  2      645
siesta:      7.95575  24.31397  28.79262  1      646
siesta:      9.31635  23.93602  29.92645  2      647
siesta:      8.01244  22.99116  27.56430  2      648
siesta:     16.83747  32.17523  22.17857  1      649
siesta:     15.23120  32.09964  23.01005  2      650
siesta:     17.85792  33.19568  23.25572  2      651
siesta:     17.97130  34.63187  28.54695  1      652
siesta:     18.95396  34.31062  30.02094  2      653
siesta:     16.25165  34.57518  29.13277  2      654
siesta:     14.17295  29.47292  31.62721  1      655
siesta:     14.39972  30.83352  32.79884  2      656
siesta:     12.39661  29.45402  31.30596  2      657
siesta:      9.01400  19.32509  25.41001  1      658
siesta:      8.42818  17.79441  26.16590  2      659
siesta:      8.08803  19.45737  23.86043  2      660
siesta:      6.02823  33.21458  27.79106  1      661
siesta:      7.14317  31.85398  28.26349  2      662
siesta:      5.78256  34.14055  29.32174  2      663
siesta:      0.77479  37.12631  24.16279  1      664
siesta:      0.56692  36.44601  25.82575  2      665
siesta:     -0.90707  37.27749  23.52028  2      666
siesta:     13.03912  21.32820  36.93734  1      667
siesta:     11.98087  22.78329  36.89955  2      668
siesta:     11.99977  19.96759  36.35153  2      669
siesta:      9.63761  31.55162  36.29483  1      670
siesta:      8.18252  30.89022  35.46335  2      671
siesta:     10.48798  30.07763  36.93734  2      672
siesta:     21.74394  22.95336  33.17678  1      673
siesta:     20.81797  23.35020  34.68857  2      674
siesta:     20.51561  22.15968  32.09964  2      675
siesta:     28.41467  36.48381  35.04761  1      676
siesta:     26.94069  36.74837  34.02716  2      677
siesta:     28.32019  34.74526  35.53894  2      678
siesta:     31.57052  27.54540  23.76594  1      679
siesta:     31.53272  26.97848  22.04629  2      680
siesta:     33.08230  26.82730  24.44625  2      681
siesta:     29.20836  25.76906  37.05072  1      682
siesta:     28.58475  25.69347  35.34997  2      683
siesta:     27.71547  25.86354  38.05228  2      684
siesta:     19.28729  27.56430  32.30751  1      685
siesta:     17.64323  28.30129  32.28861  2      686
siesta:     19.11722  26.09031  33.32796  2      687
siesta:     24.37066  19.11722  31.24926  1      688
siesta:     25.86354  19.36288  30.24771  2      689
siesta:     23.89823  20.78018  31.77839  2      690
siesta:     20.00539  36.38932  36.78616  1      691
siesta:     18.56920  35.33107  36.48381  2      692
siesta:     19.72193  37.10742  38.41133  2      693
siesta:     30.13432  32.43979  24.16279  1      694
siesta:     28.39578  32.25082  23.65256  2      695
siesta:     30.64455  30.77683  24.63522  2      696
siesta:     31.60831  33.89488  28.94380  1      697
siesta:     32.51538  32.51538  29.64300  2      698
siesta:     31.06029  33.29017  27.31863  2      699
siesta:     21.19592  25.46670  28.03673  1      700
siesta:     22.82108  24.93758  28.64144  2      701
siesta:     20.30774  25.99582  29.52961  2      702
siesta:     24.01161  19.64634  21.87622  1      703
siesta:     23.57697  20.17546  20.19436  2      704
siesta:     22.40534  19.49516  22.72660  2      705
siesta:     24.38955  32.95002  22.44314  1      706
siesta:     24.61632  34.72636  22.12188  2      707
siesta:     24.25727  32.81774  24.23838  2      708
siesta:     24.44625  28.41467  34.14055  1      709
siesta:     23.80374  29.00049  35.72792  2      710
siesta:     22.99116  28.37688  33.04450  2      711
siesta:     30.73904  23.35020  31.60831  1      712
siesta:     30.66345  21.55496  31.89177  2      713
siesta:     32.47759  23.69036  31.23037  2      714
siesta:     33.10120  18.62589  22.70770  1      715
siesta:     31.41934  18.24794  23.25572  2      716
siesta:     32.85553  19.64634  21.23371  2      717
siesta:     27.84775  29.32174  30.32330  1      718
siesta:     26.80841  28.88710  31.74059  2      719
siesta:     28.16901  27.73437  29.49182  2      720
siesta:     21.55496  29.73748  19.91090  1      721
siesta:     22.46203  31.02250  20.78018  2      722
siesta:     19.81642  30.20991  20.08098  2      723
siesta:     21.32820  33.74370  32.79884  1      724
siesta:     20.38333  32.51538  33.72481  2      725
siesta:     21.17702  35.25548  33.80039  2      726
siesta:     33.91378  32.79884  35.65233  1      727
siesta:     34.44290  32.51538  37.35308  2      728
siesta:     32.47759  33.87598  35.80351  2      729
siesta:     36.12476  23.72815  18.36133  1      730
siesta:     36.20035  23.91712  20.15657  2      731
siesta:     34.57518  22.82108  18.07787  2      732
siesta:     25.18324  25.84464  21.42268  1      733
siesta:     24.18168  27.35643  21.47938  2      734
siesta:     23.99271  24.50294  21.74394  2      735
siesta:     18.66368  25.82575  23.35020  1      736
siesta:     19.26839  26.05251  25.03206  2      737
siesta:     19.98649  26.50605  22.31086  2      738
siesta:     35.86020  21.29040  29.90756  1      739
siesta:     36.38932  19.57075  29.64300  2      740
siesta:     35.67122  21.97070  28.22570  2      741
siesta:     26.58164  24.31397  28.79262  1      742
siesta:     27.94224  23.93602  29.92645  2      743
siesta:     26.63833  22.99116  27.56430  2      744
siesta:     35.46335  32.17523  22.17857  1      745
siesta:     33.85709  32.09964  23.01005  2      746
siesta:     36.48381  33.19568  23.25572  2      747
siesta:     36.59719  34.63187  28.54695  1      748
siesta:     37.57985  34.31062  30.02094  2      749
siesta:     34.87754  34.57518  29.13277  2      750
siesta:     32.79884  29.47292  31.62721  1      751
siesta:     33.02561  30.83352  32.79884  2      752
siesta:     31.02250  29.45402  31.30596  2      753
siesta:     27.63988  19.32509  25.41001  1      754
siesta:     27.05407  17.79441  26.16590  2      755
siesta:     26.71392  19.45737  23.86043  2      756
siesta:     24.65412  33.21458  27.79106  1      757
siesta:     25.76906  31.85398  28.26349  2      758
siesta:     24.40845  34.14055  29.32174  2      759
siesta:     19.40068  37.12631  24.16279  1      760
siesta:     19.19281  36.44601  25.82575  2      761
siesta:     17.71882  37.27749  23.52028  2      762
siesta:     31.66500  21.32820  36.93734  1      763
siesta:     30.60676  22.78329  36.89955  2      764
siesta:     30.62565  19.96759  36.35153  2      765
siesta:     28.26349  31.55162  36.29483  1      766
siesta:     26.80841  30.89022  35.46335  2      767
siesta:     29.11387  30.07763  36.93734  2      768

siesta: System type = bulk      

initatomlists: Number of atoms, orbitals, and projectors:    768  5888  8704

siesta: ******************** Simulation parameters ****************************
siesta:
siesta: The following are some of the parameters of the simulation.
siesta: A complete list of the parameters used, including default values,
siesta: can be found in file out.fdf
siesta:
redata: Non-Collinear-spin run           =     F
redata: SpinPolarized (Up/Down) run      =     F
redata: Number of spin components        =     1
redata: Long output                      =     F
redata: Number of Atomic Species         =        2
redata: Charge density info will appear in .RHO file
redata: Write Mulliken Pop.              =     NO
redata: Mesh Cutoff                      =   150.0000  Ry
redata: Net charge of the system         =     0.0000 |e|
redata: Min. number of SCF Iter          =        0
redata: Max. number of SCF Iter          =       50
redata: Mix DM or H after convergence    =     F
redata: Recompute H after scf cycle      =     F
redata: Performing Pulay mixing using    =     3 iterations
redata: Mix DM in first SCF step ?       =     F
redata: Write Pulay info on disk?        =     F
redata: Discard 1st Pulay DM after  kick =     F
redata: New DM Mixing Weight             =     0.3000
redata: New DM Occupancy tolerance       = 0.000000000001
redata: No kicks to SCF
redata: DM Mixing Weight for Kicks       =     0.5000
redata: DM Tolerance for SCF             =     0.000100
redata: Require (free) Energy convergence in SCF =     F
redata: DM (free)Energy tolerance for SCF =     0.000010 eV
redata: Require Harris convergence for SCF =     F
redata: DM Harris energy tolerance for SCF =     0.000010 eV
redata: Using Saved Data (generic)   =     F
redata: Use continuation files for DM    =     F
redata: Neglect nonoverlap interactions  =     F
redata: Method of Calculation            =     Diagonalization
redata: Divide and Conquer               =     T
redata: Electronic Temperature           =     0.0019  Ry
redata: Fix the spin of the system       =     F
redata: Dynamics option                  =     Single-point calculation
redata: ***********************************************************************
Total number of electrons:  2048.000000
Total ionic charge:  2048.000000

* ProcessorY, Blocksize:   16  12


* Orbital distribution balance (max,min):    12     0

 Kpoints in:            1 . Kpoints trimmed:            1

siesta: k-grid: Number of k-points =     1
siesta: k-grid: Cutoff (effective) =     9.856 Ang
siesta: k-grid: Supercell and displacements
siesta: k-grid:    1   0   0      0.000
siesta: k-grid:    0   1   0      0.000
siesta: k-grid:    0   0   1      0.000

                     ====================================
                        Single-point calculation
                     ====================================

outcell: Unit cell vectors (Ang):
       19.712783    0.000000    0.000000
        0.000000   19.712783    0.000000
        0.000000    0.000000   19.712783

outcell: Cell vector modules (Ang)   :   19.712783   19.712783   19.712783
outcell: Cell angles (23,13,12) (deg):     90.0000     90.0000     90.0000
outcell: Cell volume (Ang**3)        :   7660.2653
New_DM. Step:     1
Initializing Density Matrix...
New grid distribution:   1
           1       1:   75    1:    5    1:    3
           2       1:   75    1:    5    4:    6
           3       1:   75    1:    5    7:    9
           4       1:   75    1:    5   10:   12
           5       1:   75    1:    5   13:   15
           6       1:   75    1:    5   16:   18
           7       1:   75    1:    5   19:   21
           8       1:   75    1:    5   22:   24
           9       1:   75    1:    5   25:   27
          10       1:   75    1:    5   28:   30
          11       1:   75    1:    5   31:   33
          12       1:   75    1:    5   34:   35
          13       1:   75    1:    5   36:   37
          14       1:   75    1:    5   38:   39
          15       1:   75    1:    5   40:   41
          16       1:   75    1:    5   42:   43
          17       1:   75    1:    5   44:   45
          18       1:   75    1:    5   46:   47
          19       1:   75    1:    5   48:   49
          20       1:   75    1:    5   50:   51
          21       1:   75    1:    5   52:   53
          22       1:   75    1:    5   54:   55
          23       1:   75    1:    5   56:   57
          24       1:   75    1:    5   58:   59
          25       1:   75    1:    5   60:   61
          26       1:   75    1:    5   62:   63
          27       1:   75    1:    5   64:   65
          28       1:   75    1:    5   66:   67
          29       1:   75    1:    5   68:   69
          30       1:   75    1:    5   70:   71
          31       1:   75    1:    5   72:   73
          32       1:   75    1:    5   74:   75
          33       1:   75    6:   10    1:    3
          34       1:   75    6:   10    4:    6
          35       1:   75    6:   10    7:    9
          36       1:   75    6:   10   10:   12
          37       1:   75    6:   10   13:   15
          38       1:   75    6:   10   16:   18
          39       1:   75    6:   10   19:   21
          40       1:   75    6:   10   22:   24
          41       1:   75    6:   10   25:   27
          42       1:   75    6:   10   28:   30
          43       1:   75    6:   10   31:   33
          44       1:   75    6:   10   34:   35
          45       1:   75    6:   10   36:   37
          46       1:   75    6:   10   38:   39
          47       1:   75    6:   10   40:   41
          48       1:   75    6:   10   42:   43
          49       1:   75    6:   10   44:   45
          50       1:   75    6:   10   46:   47
          51       1:   75    6:   10   48:   49
          52       1:   75    6:   10   50:   51
          53       1:   75    6:   10   52:   53
          54       1:   75    6:   10   54:   55
          55       1:   75    6:   10   56:   57
          56       1:   75    6:   10   58:   59
          57       1:   75    6:   10   60:   61
          58       1:   75    6:   10   62:   63
          59       1:   75    6:   10   64:   65
          60       1:   75    6:   10   66:   67
          61       1:   75    6:   10   68:   69
          62       1:   75    6:   10   70:   71
          63       1:   75    6:   10   72:   73
          64       1:   75    6:   10   74:   75
          65       1:   75   11:   15    1:    3
          66       1:   75   11:   15    4:    6
          67       1:   75   11:   15    7:    9
          68       1:   75   11:   15   10:   12
          69       1:   75   11:   15   13:   15
          70       1:   75   11:   15   16:   18
          71       1:   75   11:   15   19:   21
          72       1:   75   11:   15   22:   24
          73       1:   75   11:   15   25:   27
          74       1:   75   11:   15   28:   30
          75       1:   75   11:   15   31:   33
          76       1:   75   11:   15   34:   35
          77       1:   75   11:   15   36:   37
          78       1:   75   11:   15   38:   39
          79       1:   75   11:   15   40:   41
          80       1:   75   11:   15   42:   43
          81       1:   75   11:   15   44:   45
          82       1:   75   11:   15   46:   47
          83       1:   75   11:   15   48:   49
          84       1:   75   11:   15   50:   51
          85       1:   75   11:   15   52:   53
          86       1:   75   11:   15   54:   55
          87       1:   75   11:   15   56:   57
          88       1:   75   11:   15   58:   59
          89       1:   75   11:   15   60:   61
          90       1:   75   11:   15   62:   63
          91       1:   75   11:   15   64:   65
          92       1:   75   11:   15   66:   67
          93       1:   75   11:   15   68:   69
          94       1:   75   11:   15   70:   71
          95       1:   75   11:   15   72:   73
          96       1:   75   11:   15   74:   75
          97       1:   75   16:   20    1:    3
          98       1:   75   16:   20    4:    6
          99       1:   75   16:   20    7:    9
         100       1:   75   16:   20   10:   12
         101       1:   75   16:   20   13:   15
         102       1:   75   16:   20   16:   18
         103       1:   75   16:   20   19:   21
         104       1:   75   16:   20   22:   24
         105       1:   75   16:   20   25:   27
         106       1:   75   16:   20   28:   30
         107       1:   75   16:   20   31:   33
         108       1:   75   16:   20   34:   35
         109       1:   75   16:   20   36:   37
         110       1:   75   16:   20   38:   39
         111       1:   75   16:   20   40:   41
         112       1:   75   16:   20   42:   43
         113       1:   75   16:   20   44:   45
         114       1:   75   16:   20   46:   47
         115       1:   75   16:   20   48:   49
         116       1:   75   16:   20   50:   51
         117       1:   75   16:   20   52:   53
         118       1:   75   16:   20   54:   55
         119       1:   75   16:   20   56:   57
         120       1:   75   16:   20   58:   59
         121       1:   75   16:   20   60:   61
         122       1:   75   16:   20   62:   63
         123       1:   75   16:   20   64:   65
         124       1:   75   16:   20   66:   67
         125       1:   75   16:   20   68:   69
         126       1:   75   16:   20   70:   71
         127       1:   75   16:   20   72:   73
         128       1:   75   16:   20   74:   75
         129       1:   75   21:   25    1:    3
         130       1:   75   21:   25    4:    6
         131       1:   75   21:   25    7:    9
         132       1:   75   21:   25   10:   12
         133       1:   75   21:   25   13:   15
         134       1:   75   21:   25   16:   18
         135       1:   75   21:   25   19:   21
         136       1:   75   21:   25   22:   24
         137       1:   75   21:   25   25:   27
         138       1:   75   21:   25   28:   30
         139       1:   75   21:   25   31:   33
         140       1:   75   21:   25   34:   35
         141       1:   75   21:   25   36:   37
         142       1:   75   21:   25   38:   39
         143       1:   75   21:   25   40:   41
         144       1:   75   21:   25   42:   43
         145       1:   75   21:   25   44:   45
         146       1:   75   21:   25   46:   47
         147       1:   75   21:   25   48:   49
         148       1:   75   21:   25   50:   51
         149       1:   75   21:   25   52:   53
         150       1:   75   21:   25   54:   55
         151       1:   75   21:   25   56:   57
         152       1:   75   21:   25   58:   59
         153       1:   75   21:   25   60:   61
         154       1:   75   21:   25   62:   63
         155       1:   75   21:   25   64:   65
         156       1:   75   21:   25   66:   67
         157       1:   75   21:   25   68:   69
         158       1:   75   21:   25   70:   71
         159       1:   75   21:   25   72:   73
         160       1:   75   21:   25   74:   75
         161       1:   75   26:   30    1:    3
         162       1:   75   26:   30    4:    6
         163       1:   75   26:   30    7:    9
         164       1:   75   26:   30   10:   12
         165       1:   75   26:   30   13:   15
         166       1:   75   26:   30   16:   18
         167       1:   75   26:   30   19:   21
         168       1:   75   26:   30   22:   24
         169       1:   75   26:   30   25:   27
         170       1:   75   26:   30   28:   30
         171       1:   75   26:   30   31:   33
         172       1:   75   26:   30   34:   35
         173       1:   75   26:   30   36:   37
         174       1:   75   26:   30   38:   39
         175       1:   75   26:   30   40:   41
         176       1:   75   26:   30   42:   43
         177       1:   75   26:   30   44:   45
         178       1:   75   26:   30   46:   47
         179       1:   75   26:   30   48:   49
         180       1:   75   26:   30   50:   51
         181       1:   75   26:   30   52:   53
         182       1:   75   26:   30   54:   55
         183       1:   75   26:   30   56:   57
         184       1:   75   26:   30   58:   59
         185       1:   75   26:   30   60:   61
         186       1:   75   26:   30   62:   63
         187       1:   75   26:   30   64:   65
         188       1:   75   26:   30   66:   67
         189       1:   75   26:   30   68:   69
         190       1:   75   26:   30   70:   71
         191       1:   75   26:   30   72:   73
         192       1:   75   26:   30   74:   75
         193       1:   75   31:   35    1:    3
         194       1:   75   31:   35    4:    6
         195       1:   75   31:   35    7:    9
         196       1:   75   31:   35   10:   12
         197       1:   75   31:   35   13:   15
         198       1:   75   31:   35   16:   18
         199       1:   75   31:   35   19:   21
         200       1:   75   31:   35   22:   24
         201       1:   75   31:   35   25:   27
         202       1:   75   31:   35   28:   30
         203       1:   75   31:   35   31:   33
         204       1:   75   31:   35   34:   35
         205       1:   75   31:   35   36:   37
         206       1:   75   31:   35   38:   39
         207       1:   75   31:   35   40:   41
         208       1:   75   31:   35   42:   43
         209       1:   75   31:   35   44:   45
         210       1:   75   31:   35   46:   47
         211       1:   75   31:   35   48:   49
         212       1:   75   31:   35   50:   51
         213       1:   75   31:   35   52:   53
         214       1:   75   31:   35   54:   55
         215       1:   75   31:   35   56:   57
         216       1:   75   31:   35   58:   59
         217       1:   75   31:   35   60:   61
         218       1:   75   31:   35   62:   63
         219       1:   75   31:   35   64:   65
         220       1:   75   31:   35   66:   67
         221       1:   75   31:   35   68:   69
         222       1:   75   31:   35   70:   71
         223       1:   75   31:   35   72:   73
         224       1:   75   31:   35   74:   75
         225       1:   75   36:   40    1:    3
         226       1:   75   36:   40    4:    6
         227       1:   75   36:   40    7:    9
         228       1:   75   36:   40   10:   12
         229       1:   75   36:   40   13:   15
         230       1:   75   36:   40   16:   18
         231       1:   75   36:   40   19:   21
         232       1:   75   36:   40   22:   24
         233       1:   75   36:   40   25:   27
         234       1:   75   36:   40   28:   30
         235       1:   75   36:   40   31:   33
         236       1:   75   36:   40   34:   35
         237       1:   75   36:   40   36:   37
         238       1:   75   36:   40   38:   39
         239       1:   75   36:   40   40:   41
         240       1:   75   36:   40   42:   43
         241       1:   75   36:   40   44:   45
         242       1:   75   36:   40   46:   47
         243       1:   75   36:   40   48:   49
         244       1:   75   36:   40   50:   51
         245       1:   75   36:   40   52:   53
         246       1:   75   36:   40   54:   55
         247       1:   75   36:   40   56:   57
         248       1:   75   36:   40   58:   59
         249       1:   75   36:   40   60:   61
         250       1:   75   36:   40   62:   63
         251       1:   75   36:   40   64:   65
         252       1:   75   36:   40   66:   67
         253       1:   75   36:   40   68:   69
         254       1:   75   36:   40   70:   71
         255       1:   75   36:   40   72:   73
         256       1:   75   36:   40   74:   75
         257       1:   75   41:   45    1:    3
         258       1:   75   41:   45    4:    6
         259       1:   75   41:   45    7:    9
         260       1:   75   41:   45   10:   12
         261       1:   75   41:   45   13:   15
         262       1:   75   41:   45   16:   18
         263       1:   75   41:   45   19:   21
         264       1:   75   41:   45   22:   24
         265       1:   75   41:   45   25:   27
         266       1:   75   41:   45   28:   30
         267       1:   75   41:   45   31:   33
         268       1:   75   41:   45   34:   35
         269       1:   75   41:   45   36:   37
         270       1:   75   41:   45   38:   39
         271       1:   75   41:   45   40:   41
         272       1:   75   41:   45   42:   43
         273       1:   75   41:   45   44:   45
         274       1:   75   41:   45   46:   47
         275       1:   75   41:   45   48:   49
         276       1:   75   41:   45   50:   51
         277       1:   75   41:   45   52:   53
         278       1:   75   41:   45   54:   55
         279       1:   75   41:   45   56:   57
         280       1:   75   41:   45   58:   59
         281       1:   75   41:   45   60:   61
         282       1:   75   41:   45   62:   63
         283       1:   75   41:   45   64:   65
         284       1:   75   41:   45   66:   67
         285       1:   75   41:   45   68:   69
         286       1:   75   41:   45   70:   71
         287       1:   75   41:   45   72:   73
         288       1:   75   41:   45   74:   75
         289       1:   75   46:   50    1:    3
         290       1:   75   46:   50    4:    6
         291       1:   75   46:   50    7:    9
         292       1:   75   46:   50   10:   12
         293       1:   75   46:   50   13:   15
         294       1:   75   46:   50   16:   18
         295       1:   75   46:   50   19:   21
         296       1:   75   46:   50   22:   24
         297       1:   75   46:   50   25:   27
         298       1:   75   46:   50   28:   30
         299       1:   75   46:   50   31:   33
         300       1:   75   46:   50   34:   35
         301       1:   75   46:   50   36:   37
         302       1:   75   46:   50   38:   39
         303       1:   75   46:   50   40:   41
         304       1:   75   46:   50   42:   43
         305       1:   75   46:   50   44:   45
         306       1:   75   46:   50   46:   47
         307       1:   75   46:   50   48:   49
         308       1:   75   46:   50   50:   51
         309       1:   75   46:   50   52:   53
         310       1:   75   46:   50   54:   55
         311       1:   75   46:   50   56:   57
         312       1:   75   46:   50   58:   59
         313       1:   75   46:   50   60:   61
         314       1:   75   46:   50   62:   63
         315       1:   75   46:   50   64:   65
         316       1:   75   46:   50   66:   67
         317       1:   75   46:   50   68:   69
         318       1:   75   46:   50   70:   71
         319       1:   75   46:   50   72:   73
         320       1:   75   46:   50   74:   75
         321       1:   75   51:   55    1:    3
         322       1:   75   51:   55    4:    6
         323       1:   75   51:   55    7:    9
         324       1:   75   51:   55   10:   12
         325       1:   75   51:   55   13:   15
         326       1:   75   51:   55   16:   18
         327       1:   75   51:   55   19:   21
         328       1:   75   51:   55   22:   24
         329       1:   75   51:   55   25:   27
         330       1:   75   51:   55   28:   30
         331       1:   75   51:   55   31:   33
         332       1:   75   51:   55   34:   35
         333       1:   75   51:   55   36:   37
         334       1:   75   51:   55   38:   39
         335       1:   75   51:   55   40:   41
         336       1:   75   51:   55   42:   43
         337       1:   75   51:   55   44:   45
         338       1:   75   51:   55   46:   47
         339       1:   75   51:   55   48:   49
         340       1:   75   51:   55   50:   51
         341       1:   75   51:   55   52:   53
         342       1:   75   51:   55   54:   55
         343       1:   75   51:   55   56:   57
         344       1:   75   51:   55   58:   59
         345       1:   75   51:   55   60:   61
         346       1:   75   51:   55   62:   63
         347       1:   75   51:   55   64:   65
         348       1:   75   51:   55   66:   67
         349       1:   75   51:   55   68:   69
         350       1:   75   51:   55   70:   71
         351       1:   75   51:   55   72:   73
         352       1:   75   51:   55   74:   75
         353       1:   75   56:   59    1:    3
         354       1:   75   56:   59    4:    6
         355       1:   75   56:   59    7:    9
         356       1:   75   56:   59   10:   12
         357       1:   75   56:   59   13:   15
         358       1:   75   56:   59   16:   18
         359       1:   75   56:   59   19:   21
         360       1:   75   56:   59   22:   24
         361       1:   75   56:   59   25:   27
         362       1:   75   56:   59   28:   30
         363       1:   75   56:   59   31:   33
         364       1:   75   56:   59   34:   35
         365       1:   75   56:   59   36:   37
         366       1:   75   56:   59   38:   39
         367       1:   75   56:   59   40:   41
         368       1:   75   56:   59   42:   43
         369       1:   75   56:   59   44:   45
         370       1:   75   56:   59   46:   47
         371       1:   75   56:   59   48:   49
         372       1:   75   56:   59   50:   51
         373       1:   75   56:   59   52:   53
         374       1:   75   56:   59   54:   55
         375       1:   75   56:   59   56:   57
         376       1:   75   56:   59   58:   59
         377       1:   75   56:   59   60:   61
         378       1:   75   56:   59   62:   63
         379       1:   75   56:   59   64:   65
         380       1:   75   56:   59   66:   67
         381       1:   75   56:   59   68:   69
         382       1:   75   56:   59   70:   71
         383       1:   75   56:   59   72:   73
         384       1:   75   56:   59   74:   75
         385       1:   75   60:   63    1:    3
         386       1:   75   60:   63    4:    6
         387       1:   75   60:   63    7:    9
         388       1:   75   60:   63   10:   12
         389       1:   75   60:   63   13:   15
         390       1:   75   60:   63   16:   18
         391       1:   75   60:   63   19:   21
         392       1:   75   60:   63   22:   24
         393       1:   75   60:   63   25:   27
         394       1:   75   60:   63   28:   30
         395       1:   75   60:   63   31:   33
         396       1:   75   60:   63   34:   35
         397       1:   75   60:   63   36:   37
         398       1:   75   60:   63   38:   39
         399       1:   75   60:   63   40:   41
         400       1:   75   60:   63   42:   43
         401       1:   75   60:   63   44:   45
         402       1:   75   60:   63   46:   47
         403       1:   75   60:   63   48:   49
         404       1:   75   60:   63   50:   51
         405       1:   75   60:   63   52:   53
         406       1:   75   60:   63   54:   55
         407       1:   75   60:   63   56:   57
         408       1:   75   60:   63   58:   59
         409       1:   75   60:   63   60:   61
         410       1:   75   60:   63   62:   63
         411       1:   75   60:   63   64:   65
         412       1:   75   60:   63   66:   67
         413       1:   75   60:   63   68:   69
         414       1:   75   60:   63   70:   71
         415       1:   75   60:   63   72:   73
         416       1:   75   60:   63   74:   75
         417       1:   75   64:   67    1:    3
         418       1:   75   64:   67    4:    6
         419       1:   75   64:   67    7:    9
         420       1:   75   64:   67   10:   12
         421       1:   75   64:   67   13:   15
         422       1:   75   64:   67   16:   18
         423       1:   75   64:   67   19:   21
         424       1:   75   64:   67   22:   24
         425       1:   75   64:   67   25:   27
         426       1:   75   64:   67   28:   30
         427       1:   75   64:   67   31:   33
         428       1:   75   64:   67   34:   35
         429       1:   75   64:   67   36:   37
         430       1:   75   64:   67   38:   39
         431       1:   75   64:   67   40:   41
         432       1:   75   64:   67   42:   43
         433       1:   75   64:   67   44:   45
         434       1:   75   64:   67   46:   47
         435       1:   75   64:   67   48:   49
         436       1:   75   64:   67   50:   51
         437       1:   75   64:   67   52:   53
         438       1:   75   64:   67   54:   55
         439       1:   75   64:   67   56:   57
         440       1:   75   64:   67   58:   59
         441       1:   75   64:   67   60:   61
         442       1:   75   64:   67   62:   63
         443       1:   75   64:   67   64:   65
         444       1:   75   64:   67   66:   67
         445       1:   75   64:   67   68:   69
         446       1:   75   64:   67   70:   71
         447       1:   75   64:   67   72:   73
         448       1:   75   64:   67   74:   75
         449       1:   75   68:   71    1:    3
         450       1:   75   68:   71    4:    6
         451       1:   75   68:   71    7:    9
         452       1:   75   68:   71   10:   12
         453       1:   75   68:   71   13:   15
         454       1:   75   68:   71   16:   18
         455       1:   75   68:   71   19:   21
         456       1:   75   68:   71   22:   24
         457       1:   75   68:   71   25:   27
         458       1:   75   68:   71   28:   30
         459       1:   75   68:   71   31:   33
         460       1:   75   68:   71   34:   35
         461       1:   75   68:   71   36:   37
         462       1:   75   68:   71   38:   39
         463       1:   75   68:   71   40:   41
         464       1:   75   68:   71   42:   43
         465       1:   75   68:   71   44:   45
         466       1:   75   68:   71   46:   47
         467       1:   75   68:   71   48:   49
         468       1:   75   68:   71   50:   51
         469       1:   75   68:   71   52:   53
         470       1:   75   68:   71   54:   55
         471       1:   75   68:   71   56:   57
         472       1:   75   68:   71   58:   59
         473       1:   75   68:   71   60:   61
         474       1:   75   68:   71   62:   63
[...]
siesta:    621   -0.361241    0.841743   -0.943144
siesta:    622    0.898285    0.883890   -0.767219
siesta:    623   -0.803570   -0.202320    0.920653
siesta:    624   -0.387053   -0.658139   -0.601453
siesta:    625   -0.082760   -1.825239   -1.106984
siesta:    626    0.972095    1.653757    1.020069
siesta:    627   -0.944680    0.150527    0.217524
siesta:    628    0.150300   -0.214406   -1.263046
siesta:    629   -0.307001   -0.701254    0.439041
siesta:    630    0.272202    0.503935    0.408314
siesta:    631    0.697834    0.011351   -1.424466
siesta:    632    0.305087   -0.350367    1.578378
siesta:    633   -0.814617    0.584344    0.033358
siesta:    634    1.310166    0.537632   -0.818229
siesta:    635    0.108954    0.296306    1.052246
siesta:    636   -0.849516   -0.669821   -0.330124
siesta:    637    0.455526   -0.294648    0.115934
siesta:    638   -0.528866    0.610983   -0.060906
siesta:    639   -0.035061   -0.397163    0.157676
siesta:    640   -1.093254   -0.535363   -1.101681
siesta:    641    0.863469   -0.136034    1.441352
siesta:    642    0.290668    0.596054   -0.315708
siesta:    643   -0.206733    0.983310    0.735136
siesta:    644    0.050279   -0.934606   -0.358642
siesta:    645    0.245699    0.018015   -0.324021
siesta:    646   -1.270303    0.882768   -0.066707
siesta:    647    1.085638   -0.364548    0.640475
siesta:    648    0.276697   -0.725445   -0.931706
siesta:    649    0.380103   -0.935337   -1.237286
siesta:    650   -0.846664    0.050314    0.210087
siesta:    651    0.665278    0.779154    0.571374
siesta:    652    0.507881    0.609074   -0.979692
siesta:    653    1.388138   -0.493572    1.142423
siesta:    654   -1.265224    0.183274   -0.333564
siesta:    655    1.903464   -0.504289   -0.500802
siesta:    656    0.118118    0.517120    1.182396
siesta:    657   -1.729475   -0.111410   -0.231507
siesta:    658    1.202265    0.848780    0.686889
siesta:    659   -0.353806   -1.010143    0.413927
siesta:    660   -0.677992    0.251112   -0.718277
siesta:    661    0.108922    0.088898   -1.289600
siesta:    662    0.496862   -0.662354    0.457579
siesta:    663   -0.546284    0.488740    0.885566
siesta:    664    1.707665    0.365711   -1.021612
siesta:    665   -0.137868   -0.574838    1.209709
siesta:    666   -1.546372    0.233382   -0.166277
siesta:    667    1.790738   -0.719437    0.611427
siesta:    668   -0.926534    1.468563    0.231150
siesta:    669   -0.867586   -0.957640   -0.616554
siesta:    670    0.581505    0.789863    0.452437
siesta:    671   -0.860786   -0.411344   -0.713687
siesta:    672    0.394468   -0.499666    0.144749
siesta:    673    0.887642    0.278604   -0.086391
siesta:    674   -0.443754   -0.273790    0.852457
siesta:    675   -0.921199   -0.245584   -0.547871
siesta:    676    0.739282    1.081453    0.180797
siesta:    677   -0.864531    0.281242   -0.662172
siesta:    678    0.011097   -1.270719    0.433947
siesta:    679   -0.651200    0.406720    0.621160
siesta:    680   -0.053841   -0.223774   -0.729360
siesta:    681    0.867950   -0.307147    0.090087
siesta:    682    1.640385    0.285062   -0.460025
siesta:    683   -0.080347    0.077076   -0.767106
siesta:    684   -1.548251   -0.185395    1.127809
siesta:    685    1.085166    0.578064   -0.371665
siesta:    686   -1.347335    0.476154   -0.210755
siesta:    687   -0.183581   -0.737293    0.741363
siesta:    688    0.574293   -1.396389   -0.051158
siesta:    689    0.385395    0.203997   -0.518795
siesta:    690   -0.391687    1.142913    0.567566
siesta:    691    0.717321    0.207881   -0.565664
siesta:    692   -0.953820   -0.399084   -0.035721
siesta:    693   -0.272894    0.296343    0.878437
siesta:    694    0.232917    1.364598    0.113933
siesta:    695   -0.604991    0.048315   -0.371839
siesta:    696    0.216635   -1.724828   -0.116789
siesta:    697   -0.237051    1.718004    0.553650
siesta:    698    0.191082   -1.607687    0.608330
siesta:    699   -0.413393    0.031203   -0.937357
siesta:    700   -0.457343   -0.121306   -1.385038
siesta:    701    0.893335   -0.157385    0.144430
siesta:    702   -0.366339    0.517359    0.774546
siesta:    703    0.750662    0.291957   -0.334506
siesta:    704    0.116124   -0.045895   -0.654646
siesta:    705   -1.085130   -0.171026    0.842614
siesta:    706    0.539108   -0.967304   -0.803463
siesta:    707   -0.124753    0.841228   -0.359384
siesta:    708   -0.369270    0.103471    1.437069
siesta:    709    1.266469   -0.311163   -0.537684
siesta:    710   -0.934090    0.159753    0.911477
siesta:    711   -0.762232   -0.024513   -0.292864
siesta:    712   -1.008279    0.389871    0.216078
siesta:    713    0.293262   -0.513242    0.134153
siesta:    714    0.726066   -0.064564   -0.142610
siesta:    715    0.983392   -0.250973    0.310131
siesta:    716   -0.777515   -0.199113    0.663771
siesta:    717   -0.361242    0.841750   -0.943153
siesta:    718    0.898284    0.883886   -0.767216
siesta:    719   -0.803568   -0.202318    0.920649
siesta:    720   -0.387054   -0.658136   -0.601451
siesta:    721   -0.082763   -1.825235   -1.106982
siesta:    722    0.972093    1.653755    1.020067
siesta:    723   -0.944675    0.150526    0.217524
siesta:    724    0.150295   -0.214406   -1.263040
siesta:    725   -0.306997   -0.701250    0.439038
siesta:    726    0.272202    0.503931    0.408311
siesta:    727    0.697835    0.011351   -1.424465
siesta:    728    0.305087   -0.350367    1.578377
siesta:    729   -0.814618    0.584345    0.033357
siesta:    730    1.310170    0.537634   -0.818235
siesta:    731    0.108954    0.296306    1.052253
siesta:    732   -0.849521   -0.669824   -0.330125
siesta:    733    0.455520   -0.294648    0.115935
siesta:    734   -0.528864    0.610980   -0.060906
siesta:    735   -0.035057   -0.397160    0.157675
siesta:    736   -1.093247   -0.535360   -1.101678
siesta:    737    0.863468   -0.136036    1.441347
siesta:    738    0.290663    0.596052   -0.315704
siesta:    739   -0.206743    0.983325    0.735173
siesta:    740    0.050293   -0.934630   -0.358646
siesta:    741    0.245695    0.018028   -0.324054
siesta:    742   -1.270300    0.882764   -0.066707
siesta:    743    1.085636   -0.364548    0.640471
siesta:    744    0.276698   -0.725442   -0.931703
siesta:    745    0.380104   -0.935338   -1.237288
siesta:    746   -0.846666    0.050314    0.210088
siesta:    747    0.665279    0.779155    0.571376
siesta:    748    0.507881    0.609074   -0.979696
siesta:    749    1.388139   -0.493573    1.142425
siesta:    750   -1.265226    0.183274   -0.333563
siesta:    751    1.903465   -0.504290   -0.500802
siesta:    752    0.118118    0.517122    1.182397
siesta:    753   -1.729478   -0.111411   -0.231507
siesta:    754    1.202263    0.848779    0.686888
siesta:    755   -0.353804   -1.010140    0.413927
siesta:    756   -0.677992    0.251111   -0.718277
siesta:    757    0.108923    0.088899   -1.289597
siesta:    758    0.496860   -0.662353    0.457578
siesta:    759   -0.546284    0.488738    0.885563
siesta:    760    1.707664    0.365710   -1.021610
siesta:    761   -0.137867   -0.574837    1.209707
siesta:    762   -1.546371    0.233382   -0.166277
siesta:    763    1.790720   -0.719428    0.611424
siesta:    764   -0.926519    1.468544    0.231152
siesta:    765   -0.867584   -0.957635   -0.616554
siesta:    766    0.581500    0.789845    0.452434
siesta:    767   -0.860774   -0.411338   -0.713681
siesta:    768    0.394461   -0.499654    0.144744
siesta: ----------------------------------------
siesta:    Tot    0.398527   -0.621454   -0.016774

siesta: Stress tensor (static) (eV/Ang**3):
siesta:    -0.027289    0.000775   -0.002130
siesta:     0.000775   -0.026704   -0.000343
siesta:    -0.002130   -0.000343   -0.026758

siesta: Cell volume =       7660.265307 Ang**3

siesta: Pressure (static):
siesta:                Solid            Molecule  Units
siesta:           0.00029316         -0.00001211  Ry/Bohr**3
siesta:           0.02691693         -0.00111181  eV/Ang**3
siesta:          43.12614501         -1.78133095  kBar
(Free)E+ p_basis*V_orbitals  =     -120266.845219
(Free)Eharris+ p_basis*V_orbitals  =     -120266.845219

             Section          Calls    Walltime       %
 global_section                   1     352.660  100.00
  siesta                          1     352.660  100.00
   Setup                          1       0.559    0.16
    bands                         1       0.000    0.00
    writewave                     1       0.000    0.00
    KSV_init                      1       0.000    0.00
   IterGeom                       1     351.738   99.74
    state_init                    1       0.332    0.09
     hsparse                      1       0.106    0.03
     overlap                      1       0.137    0.04
    Setup_H0                      1       2.045    0.58
     naefs                        1       0.016    0.00
     MolMec                       1       0.000    0.00
     kinefsm                      1       0.130    0.04
     nlefsm                       1       0.698    0.20
     DHSCF_Init                   1       1.193    0.34
      DHSCF1                      1       0.020    0.01
       INITMESH                   1       0.003    0.00
      DHSCF2                      1       1.173    0.33
       REMESH                     1       0.528    0.15
        INITMESH                  2       0.490    0.14
         SPLOAD                   2       0.296    0.08
       REORD                      2       0.000    0.00
       PHION                      1       0.046    0.01
       COMM_BSC                   1       0.001    0.00
       POISON                     1       0.013    0.00
        fft                       2       0.013    0.00
    IterSCF                      33     349.032   98.97
     setup_H                     33       3.584    1.02
      DHSCF                      33       3.577    1.01
       DHSCF3                    33       3.577    1.01
        rhoofd                   33       0.720    0.20
        COMM_BSC                 66       0.305    0.09
        POISON                   33       0.374    0.11
         fft                     66       0.365    0.10
        vmat                     33       0.841    0.24
     compute_dm                  33     345.415   97.95
      diagon                     33     345.350   97.93
       r-eigvec                  33     330.792   93.80
        r-buildHS                33       0.014    0.00
        rdiag                    33     330.778   93.79
         rdiag1                  33       5.720    1.62
         rdiag2                  33     145.289   41.20
         rdiag3                  33     172.977   49.05
         rdiag4                  33       6.335    1.80
       r-buildD                  33      14.535    4.12
     MIXER                       32       0.012    0.00
    PostSCF                       1       0.296    0.08
     naefs                        1       0.018    0.01
     kinefsm                      1       0.006    0.00
     nlefsm                       1       0.050    0.01
     DHSCF                        1       0.164    0.05
      DHSCF3                      1       0.088    0.03
       rhoofd                     1       0.018    0.01
       COMM_BSC                   2       0.012    0.00
       POISON                     1       0.008    0.00
        fft                       2       0.008    0.00
       vmat                       1       0.024    0.01
      DHSCF4                      1       0.076    0.02
       REORD                     10       0.000    0.00
       COMM_BSC                   2       0.004    0.00
       dfscf                      1       0.058    0.02
     overfsm                      1       0.007    0.00
     MolMec                       1       0.000    0.00
    state_analysis                1       0.033    0.01
    siesta_move                   1       0.000    0.00
   optical                        1       0.000    0.00
>> End of run:   7-DEC-2016  12:34:41
************************************************************************************************************************
***             WIDEN YOUR WINDOW TO 120 CHARACTERS.  Use 'enscript -r -fCourier9' to print this document            ***
************************************************************************************************************************

---------------------------------------------- PETSc Performance Summary: ----------------------------------------------

/global/homes/k/keceli/siesta-qetsc/Obj-gcc/siesta on a arch-cori-gcc named nid00322 with 512 processors, by keceli Wed Dec  7 12:34:41 2016
Using Petsc Development GIT revision: v3.7.4-1897-g257f32f  GIT Date: 2016-11-03 16:33:24 +0000

                         Max       Max/Min        Avg      Total 
Time (sec):           3.529e+02      1.00000   3.529e+02
Objects:              1.000e+00      1.00000   1.000e+00
Flops:                0.000e+00      0.00000   0.000e+00  0.000e+00
Flops/sec:            0.000e+00      0.00000   0.000e+00  0.000e+00
MPI Messages:         0.000e+00      0.00000   0.000e+00  0.000e+00
MPI Message Lengths:  0.000e+00      0.00000   0.000e+00  0.000e+00
MPI Reductions:       1.000e+00      1.00000

Flop counting convention: 1 flop = 1 real number operation of type (multiply/divide/add/subtract)
                            e.g., VecAXPY() for real vectors of length N --> 2N flops
                            and VecAXPY() for complex vectors of length N --> 8N flops

Summary of Stages:   ----- Time ------  ----- Flops -----  --- Messages ---  -- Message Lengths --  -- Reductions --
                        Avg     %Total     Avg     %Total   counts   %Total     Avg         %Total   counts   %Total 
 0:      Main Stage: 7.9537e-05   0.0%  0.0000e+00   0.0%  0.000e+00   0.0%  0.000e+00        0.0%  0.000e+00   0.0% 
 1:     siesta_init: 4.8925e-01   0.1%  0.0000e+00   0.0%  0.000e+00   0.0%  0.000e+00        0.0%  0.000e+00   0.0% 
 2:   siesta_forces: 2.8837e+00   0.8%  0.0000e+00   0.0%  0.000e+00   0.0%  0.000e+00        0.0%  0.000e+00   0.0% 
 3:    siesta_solve: 3.4535e+02  97.9%  0.0000e+00   0.0%  0.000e+00   0.0%  0.000e+00        0.0%  0.000e+00   0.0% 
10:     siesta_misc: 3.6237e+00   1.0%  0.0000e+00   0.0%  0.000e+00   0.0%  0.000e+00        0.0%  0.000e+00   0.0% 
11:     qetsc_clean: 3.5519e-03   0.0%  0.0000e+00   0.0%  0.000e+00   0.0%  0.000e+00        0.0%  0.000e+00   0.0% 
12:     siesta_move: 1.2598e-05   0.0%  0.0000e+00   0.0%  0.000e+00   0.0%  0.000e+00        0.0%  0.000e+00   0.0% 
13: siesta_analysis: 4.3378e-04   0.0%  0.0000e+00   0.0%  0.000e+00   0.0%  0.000e+00        0.0%  0.000e+00   0.0% 
14:      siesta_end: 5.0765e-01   0.1%  0.0000e+00   0.0%  0.000e+00   0.0%  0.000e+00        0.0%  0.000e+00   0.0% 

------------------------------------------------------------------------------------------------------------------------
See the 'Profiling' chapter of the users' manual for details on interpreting output.
Phase summary info:
   Count: number of times phase was executed
   Time and Flops: Max - maximum over all processors
                   Ratio - ratio of maximum to minimum over all processors
   Mess: number of messages sent
   Avg. len: average message length (bytes)
   Reduct: number of global reductions
   Global: entire computation
   Stage: stages of a computation. Set stages with PetscLogStagePush() and PetscLogStagePop().
      %T - percent time in this phase         %F - percent flops in this phase
      %M - percent messages in this phase     %L - percent message lengths in this phase
      %R - percent reductions in this phase
   Total Mflop/s: 10e-6 * (sum of flops over all processors)/(max time over all processors)
------------------------------------------------------------------------------------------------------------------------
Event                Count      Time (sec)     Flops                             --- Global ---  --- Stage ---   Total
                   Max Ratio  Max     Ratio   Max  Ratio  Mess   Avg len Reduct  %T %F %M %L %R  %T %F %M %L %R Mflop/s
------------------------------------------------------------------------------------------------------------------------

--- Event Stage 0: Main Stage


--- Event Stage 1: siesta_init


--- Event Stage 2: siesta_forces


--- Event Stage 3: siesta_solve


--- Event Stage 4: Unknown


--- Event Stage 5: Unknown


--- Event Stage 6: Unknown


--- Event Stage 7: Unknown


--- Event Stage 8: Unknown


--- Event Stage 9: Unknown


--- Event Stage 10: siesta_misc


--- Event Stage 11: qetsc_clean


--- Event Stage 12: siesta_move


--- Event Stage 13: siesta_analysis


--- Event Stage 14: siesta_end

------------------------------------------------------------------------------------------------------------------------

Memory usage is given in bytes:

Object Type          Creations   Destructions     Memory  Descendants' Mem.
Reports information only for process 0.

--- Event Stage 0: Main Stage


--- Event Stage 1: siesta_init


--- Event Stage 2: siesta_forces


--- Event Stage 3: siesta_solve


--- Event Stage 4: Unknown


--- Event Stage 5: Unknown


--- Event Stage 6: Unknown


--- Event Stage 7: Unknown


--- Event Stage 8: Unknown


--- Event Stage 9: Unknown


--- Event Stage 10: siesta_misc


--- Event Stage 11: qetsc_clean


--- Event Stage 12: siesta_move


--- Event Stage 13: siesta_analysis


--- Event Stage 14: siesta_end

              Viewer     1              0            0     0.
========================================================================================================================
Average time to get PetscTime(): 9.53674e-08
Average time for MPI_Barrier(): 4.1008e-05
Average time for zero size MPI_Send(): 1.5744e-06
#PETSc Option Table entries:
-eps_interval -2.3,0.
-eps_krylovschur_detect_zeros 0
-eps_krylovschur_partitions 512
-ioptbin 7
-ioptdensity 0
-ioptinertia 1
-ioptleft 2
-log_view
-mat_mumps_icntl_23 3000
-mat_mumps_icntl_28 1
-mat_mumps_icntl_7 5
-mat_type mpisbaij
-roptbuffer 0.01
-roptdiff 0.1
-writeeigs 1
#End of PETSc Option Table entries
Compiled without FORTRAN kernels
Compiled with full precision matrices (default)
sizeof(short) 2 sizeof(int) 4 sizeof(long) 8 sizeof(void*) 8 sizeof(PetscScalar) 8 sizeof(PetscInt) 4
Configure options: --COPTFLAGS="-O3 -g" --CXXOPTFLAGS="-O3 -g" --FOPTFLAGS="-O3 -g" --download-mumps --download-metis --download-parmetis --download-ptscotch=1 --download-scalapack=1 --with-cc=cc --with-clib-autodetect=0 --with-cxx=CC --with-cxxlib-autodetect=0 --with-debugging=0 --with-fc=ftn --with-fortranlib-autodetect=0 --with-mpiexec=srun --with-ssl=0 --with-x=0
-----------------------------------------
Libraries compiled on Thu Nov 24 23:08:27 2016 on cori03 
Machine characteristics: Linux-3.12.60-52.57.1.11767.0.PTF.996988-default-x86_64-with-SuSE-12-x86_64
Using PETSc directory: /global/homes/k/keceli/petsc
Using PETSc arch: arch-cori-gcc
-----------------------------------------

Using C compiler: cc   -O3 -g  ${COPTFLAGS} ${CFLAGS}
Using Fortran compiler: ftn  -O3 -g   ${FOPTFLAGS} ${FFLAGS} 
-----------------------------------------

Using include paths: -I/global/homes/k/keceli/petsc/arch-cori-gcc/include -I/global/homes/k/keceli/petsc/include -I/global/homes/k/keceli/petsc/include -I/global/homes/k/keceli/petsc/arch-cori-gcc/include
-----------------------------------------

Using C linker: cc
Using Fortran linker: ftn
Using libraries: -Wl,-rpath,/global/homes/k/keceli/petsc/arch-cori-gcc/lib -L/global/homes/k/keceli/petsc/arch-cori-gcc/lib -lpetsc -Wl,-rpath,/global/homes/k/keceli/petsc/arch-cori-gcc/lib -L/global/homes/k/keceli/petsc/arch-cori-gcc/lib -lcmumps -ldmumps -lsmumps -lzmumps -lmumps_common -lpord -lscalapack -lparmetis -lmetis -lptesmumps -lptscotch -lptscotcherr -lscotch -lscotcherr -lrt -lm -lpthread -lz -ldl 
-----------------------------------------

