Siesta Version: siesta-trunk-492
Architecture  : x86_64-unknown-linux-gnu--unknown
Compiler flags: ftn -g -O3  -ffast-math -funroll-loops -I/global/homes/k/keceli/petsc/includee -I/global/homes/k/keceli/petsc/arch-cori-gcc/include -I/global/homes/k/keceli/slepcfork/arch-cori-gcc/include -I/global/homes/k/keceli/slepcfork/include
PP flags      : -DMPI -DFC_HAVE_FLUSH -DFC_HAVE_ABORT 
PARALLEL version

* Running on  128 nodes in parallel
>> Start of run:   7-DEC-2016   8:56:45

                           ***********************       
                           *  WELCOME TO SIESTA  *       
                           ***********************       
WARNING: Siesta is reading its input from file INPUT_DEBUG

reinit: -----------------------------------------------------------------------
reinit: System Name: liquid_D2O_128
reinit: -----------------------------------------------------------------------
reinit: System Label: D2O_128                                                     
reinit: -----------------------------------------------------------------------

initatom: Reading input for the pseudopotentials and atomic orbitals ----------
Species number:   1 Atomic number:    8 Label: O
Species number:   2 Atomic number:    1 Label: H

Ground state valence configuration:   2s02  2p04
Reading pseudopotential information in formatted form from O.psf

Valence configuration for pseudopotential generation:
2s( 2.00) rc: 1.14
2p( 4.00) rc: 1.14
3d( 0.00) rc: 1.14
4f( 0.00) rc: 1.14
Ground state valence configuration:   1s01
Reading pseudopotential information in formatted form from H.psf

Valence configuration for pseudopotential generation:
1s( 0.60) rc: 1.25
2p( 0.00) rc: 1.25
3d( 0.00) rc: 1.25
4f( 0.00) rc: 1.25
For O, standard SIESTA heuristics set lmxkb to 3
 (one more than the basis l, including polarization orbitals).
Use PS.lmax or PS.KBprojectors blocks to override.
For H, standard SIESTA heuristics set lmxkb to 2
 (one more than the basis l, including polarization orbitals).
Use PS.lmax or PS.KBprojectors blocks to override.

<basis_specs>
===============================================================================
O                    Z=   8    Mass=  16.000        Charge=-0.24233    
Lmxo=2 Lmxkb= 3    BasisType=split      Semic=F
L=0  Nsemic=0  Cnfigmx=2
          n=1  nzeta=2  polorb=0
            splnorm:   0.15000    
               vcte:    23.361    
               rinn:    3.3972    
               qcoe:    0.0000    
               qyuk:    0.0000    
               qwid:   0.10000E-01
                rcs:    4.5077      2.6407    
            lambdas:    1.0000      1.0000    
L=1  Nsemic=0  Cnfigmx=2
          n=1  nzeta=2  polorb=0
            splnorm:   0.15000    
               vcte:    2.7833    
               rinn:    5.1425    
               qcoe:    0.0000    
               qyuk:    0.0000    
               qwid:   0.10000E-01
                rcs:    6.1500      2.5936    
            lambdas:    1.0000      1.0000    
L=2  Nsemic=0  Cnfigmx=3
          n=1  nzeta=1  polorb=0
            splnorm:   0.15000    
               vcte:    63.982    
               rinn:   0.16104    
               qcoe:    0.0000    
               qyuk:    0.0000    
               qwid:   0.10000E-01
                rcs:    3.5440    
            lambdas:    1.0000    
-------------------------------------------------------------------------------
L=0  Nkbl=1  erefs: 0.17977+309
L=1  Nkbl=1  erefs: 0.17977+309
L=2  Nkbl=1  erefs: 0.17977+309
L=3  Nkbl=1  erefs: 0.17977+309
===============================================================================
</basis_specs>

atom: Called for O                     (Z =   8)

read_vps: Pseudopotential generation method:
read_vps: ATM3      Troullier-Martins                       
Total valence charge:    6.00000

read_vps: Pseudopotential includes a core correction:
read_vps: Pseudo-core for xc-correction

xc_check: Exchange-correlation functional:
xc_check: GGA Perdew, Burke & Ernzerhof 1996
V l=0 = -2*Zval/r beyond r=  1.1278
V l=1 = -2*Zval/r beyond r=  1.1278
V l=2 = -2*Zval/r beyond r=  1.1278
V l=3 = -2*Zval/r beyond r=  1.1278
All V_l potentials equal beyond r=  1.1278
This should be close to max(r_c) in ps generation
All pots = -2*Zval/r beyond r=  1.1278

VLOCAL1: 99.0% of the norm of Vloc inside     34.126 Ry
VLOCAL1: 99.9% of the norm of Vloc inside     77.774 Ry
atom: Maximum radius for 4*pi*r*r*local-pseudopot. charge    1.37759
atom: Maximum radius for r*vlocal+2*Zval:    1.18566
GHOST: No ghost state for L =  0
GHOST: No ghost state for L =  1
GHOST: No ghost state for L =  2
GHOST: No ghost state for L =  3

KBgen: Kleinman-Bylander projectors: 
   l= 0   rc=  1.262145   el= -1.757696   Ekb=  9.253654   kbcos=  0.328369
   l= 1   rc=  1.262145   el= -0.664256   Ekb= -7.897175   kbcos= -0.393093
   l= 2   rc=  1.343567   el=  0.002031   Ekb= -1.922379   kbcos= -0.003517
   l= 3   rc=  1.394919   el=  0.003153   Ekb= -0.738278   kbcos= -0.000358

KBgen: Total number of  Kleinman-Bylander projectors:   16
atom: -------------------------------------------------------------------------

atom: SANKEY-TYPE ORBITALS:
atom: Selected multiple-zeta basis: split     

atom: basis set generated (by rescaling the valence charge)
atom: for an anion of charge  -0.2423

SPLIT: Orbitals with angular momentum L= 0

SPLIT: Basis orbitals for state 2s

   izeta = 1
                 lambda =    1.000000
                     rc =    4.574469
                 energy =   -1.754694
                kinetic =    1.490893
    potential(screened) =   -3.245588
       potential(ionic) =  -11.054474

   izeta = 2
                 rmatch =    2.639108
              splitnorm =    0.147036
                 energy =   -1.549986
                kinetic =    2.329570
    potential(screened) =   -3.879556
       potential(ionic) =  -12.328390

SPLIT: Orbitals with angular momentum L= 1

SPLIT: Basis orbitals for state 2p

   izeta = 1
                 lambda =    1.000000
                     rc =    6.174996
                 energy =   -0.657397
                kinetic =    4.283704
    potential(screened) =   -4.941101
       potential(ionic) =  -12.288569

   izeta = 2
                 rmatch =    2.639108
              splitnorm =    0.214885
                 energy =   -0.410839
                kinetic =    7.128014
    potential(screened) =   -7.538853
       potential(ionic) =  -16.113011

SPLIT: Orbitals with angular momentum L= 2

SPLIT: Basis orbitals for state 3d

   izeta = 1
                 lambda =    1.000000
                     rc =    3.562532
                 energy =    3.658838
                kinetic =    6.488135
    potential(screened) =   -2.829297
       potential(ionic) =  -10.001422
atom: Total number of Sankey-type orbitals: 13

atm_pop: Valence configuration (for local Pseudopot. screening):
 2s( 2.00)                                                            
 2p( 4.00)                                                            
 3d( 0.00)                                                            
Vna: chval, zval:    6.00000   6.00000

Vna:  Cut-off radius for the neutral-atom potential:   6.174996
comcore: Pseudo-core radius Rcore=  1.377587

atom: _________________________________________________________________________

<basis_specs>
===============================================================================
H                    Z=   1    Mass=  1.0100        Charge= 0.46527    
Lmxo=1 Lmxkb= 2    BasisType=split      Semic=F
L=0  Nsemic=0  Cnfigmx=1
          n=1  nzeta=2  polorb=0
            splnorm:   0.15000    
               vcte:    99.931    
               rinn:    2.5993    
               qcoe:    0.0000    
               qyuk:    0.0000    
               qwid:   0.10000E-01
                rcs:    4.2036      1.8446    
            lambdas:    1.0000      1.0000    
L=1  Nsemic=0  Cnfigmx=2
          n=1  nzeta=1  polorb=0
            splnorm:   0.15000    
               vcte:    24.565    
               rinn:    2.2023    
               qcoe:    0.0000    
               qyuk:    0.0000    
               qwid:   0.10000E-01
                rcs:    3.5282    
            lambdas:    1.0000    
-------------------------------------------------------------------------------
L=0  Nkbl=1  erefs: 0.17977+309
L=1  Nkbl=1  erefs: 0.17977+309
L=2  Nkbl=1  erefs: 0.17977+309
===============================================================================
</basis_specs>

atom: Called for H                     (Z =   1)

read_vps: Pseudopotential generation method:
read_vps: ATM 3.2.2 Troullier-Martins                       
Total valence charge:    0.60000

atom: Pseudopotential generated from an ionic configuration
atom: with net charge 0.40

xc_check: Exchange-correlation functional:
xc_check: GGA Perdew, Burke & Ernzerhof 1996
xc_check: WARNING: Pseudopotential generated with GGA revPBE functional
V l=0 = -2*Zval/r beyond r=  1.2343
V l=1 = -2*Zval/r beyond r=  1.2189
V l=2 = -2*Zval/r beyond r=  1.2189
All V_l potentials equal beyond r=  1.2343
This should be close to max(r_c) in ps generation
All pots = -2*Zval/r beyond r=  1.2343

VLOCAL1: 99.0% of the norm of Vloc inside     28.493 Ry
VLOCAL1: 99.9% of the norm of Vloc inside     64.935 Ry
atom: Maximum radius for 4*pi*r*r*local-pseudopot. charge    1.45251
atom: Maximum radius for r*vlocal+2*Zval:    1.21892
GHOST: No ghost state for L =  0
GHOST: No ghost state for L =  1
GHOST: No ghost state for L =  2

KBgen: Kleinman-Bylander projectors: 
   l= 0   rc=  1.364359   el= -0.835481   Ekb= -2.050473   kbcos= -0.374935
   l= 1   rc=  1.434438   el= -0.083696   Ekb= -0.439790   kbcos= -0.040392
   l= 2   rc=  1.470814   el= -0.018512   Ekb= -0.135383   kbcos= -0.004767

KBgen: Total number of  Kleinman-Bylander projectors:    9
atom: -------------------------------------------------------------------------

atom: SANKEY-TYPE ORBITALS:
atom: Selected multiple-zeta basis: split     

atom: basis set generated (by rescaling the valence charge)
atom: for a cation of charge   0.4653

SPLIT: Orbitals with angular momentum L= 0

SPLIT: Basis orbitals for state 1s

   izeta = 1
                 lambda =    1.000000
                     rc =    4.260636
                 energy =   -0.844786
                kinetic =    1.360018
    potential(screened) =   -2.204804
       potential(ionic) =   -2.290935

   izeta = 2
                 rmatch =    1.865767
              splitnorm =    0.575404
                 energy =    0.510436
                kinetic =    4.363202
    potential(screened) =   -3.852766
       potential(ionic) =   -3.849391

SPLIT: Orbitals with angular momentum L= 1

SPLIT: Basis orbitals for state 2p

   izeta = 1
                 lambda =    1.000000
                     rc =    3.576223
                 energy =    0.852340
                kinetic =    2.004908
    potential(screened) =   -1.152567
       potential(ionic) =   -1.298457
atom: Total number of Sankey-type orbitals:  5

atm_pop: Valence configuration (for local Pseudopot. screening):
 1s( 1.00)                                                            
 2p( 0.00)                                                            
Vna: chval, zval:    1.00000   1.00000

Vna:  Cut-off radius for the neutral-atom potential:   4.260636

atom: _________________________________________________________________________

prinput: Basis input ----------------------------------------------------------

PAO.BasisType split     

%block ChemicalSpeciesLabel
    1    8 O                       # Species index, atomic number, species label
    2    1 H                       # Species index, atomic number, species label
%endblock ChemicalSpeciesLabel

%block PAO.Basis                 # Define Basis set
O                     3  -0.242            # Label, l-shells, ionic net charge
 n=2   0   2                         # n, l, Nzeta 
   4.574      2.639   
   1.000      1.000   
 n=2   1   2                         # n, l, Nzeta 
   6.175      2.639   
   1.000      1.000   
 n=3   2   1                         # n, l, Nzeta 
   3.563   
   1.000   
H                     2   0.465            # Label, l-shells, ionic net charge
 n=1   0   2                         # n, l, Nzeta 
   4.261      1.866   
   1.000      1.000   
 n=2   1   1                         # n, l, Nzeta 
   3.576   
   1.000   
%endblock PAO.Basis

prinput: ----------------------------------------------------------------------

coor:   Atomic-coordinates input format  =     Cartesian coordinates
coor:                                          (in Angstroms)

siesta: Atomic coordinates (Bohr) and species
siesta:     26.49397   0.45353   4.66763  1        1
siesta:     26.96640   1.47399   3.25033  2        2
siesta:     25.77587   1.62517   5.85815  2        3
siesta:     20.33346  14.00288  21.97752  1        4
siesta:     21.22163  14.47531  20.46574  2        5
siesta:     18.59491  14.07847  21.50509  2        6
siesta:     11.07380   3.60938  13.00132  1        7
siesta:     11.41395   5.36682  12.83125  2        8
siesta:     11.58403   2.89128  11.43285  2        9
siesta:     14.09736  13.00132  25.01998  1       10
siesta:     14.15405  13.00132  26.83412  2       11
siesta:     13.53044  11.33836  24.56645  2       12
siesta:     17.17762   8.63605  20.03110  1       13
siesta:     16.83747   9.24076  18.34925  2       14
siesta:     18.95396   8.86282  20.23897  2       15
siesta:     22.75231   1.79524   9.37305  1       16
siesta:     21.27832   2.30547   8.48487  2       17
siesta:     23.45151   3.32592  10.03445  2       18
siesta:     27.17427  25.60580  26.85302  1       19
siesta:     28.61046  25.54911  27.94906  2       20
siesta:     27.57112  24.43417  25.53021  2       21
siesta:     24.09402  25.03888   4.02512  1       22
siesta:     23.67828  24.96329   2.26767  2       23
siesta:     24.75542  26.70184   4.28968  2       24
siesta:     28.81833  16.93195   4.57314  1       25
siesta:     29.17738  18.65160   4.13850  2       26
siesta:     29.02620  16.00599   3.04246  2       27
siesta:      3.17474   7.14317  26.24831  1       28
siesta:      1.79524   7.97465  25.45462  2       29
siesta:      4.62983   8.12583  25.81367  2       30
siesta:      1.56847   2.39995  27.68450  1       31
siesta:      0.15118   1.90862  26.68294  2       32
siesta:      2.22988   3.85504  26.85302  2       33
siesta:     21.97752   5.87705  29.00731  1       34
siesta:     21.33502   4.25189  28.51598  2       35
siesta:     21.18384   7.02978  27.87347  2       36
siesta:      2.81569  25.05778  28.47818  1       37
siesta:      3.53379  25.98374  29.85768  2       38
siesta:      3.38261  23.35702  28.74275  2       39
siesta:      2.05980   4.45976  19.10514  1       40
siesta:      0.77479   4.66763  17.83902  2       41
siesta:      3.36371   5.61249  18.61381  2       42
siesta:      9.12738  25.19006  29.38525  1       43
siesta:     10.37460  24.79322  28.13803  2       44
siesta:      7.54001  24.81211  28.59157  2       45
siesta:     20.99487   3.64717  16.91306  1       46
siesta:     19.33191   3.02356  17.30990  2       47
siesta:     21.78855   3.83615  18.51932  2       48
siesta:      2.04091  15.04223  21.58068  1       49
siesta:      1.11494  13.51155  21.42950  2       50
siesta:      2.47554  15.13671  23.33813  2       51
siesta:     16.47842   9.58092   2.28657  1       52
siesta:     17.95241   9.54312   3.34482  2       53
siesta:     16.74298  10.97931   1.19053  2       54
siesta:     25.90816   8.05024   4.72432  1       55
siesta:     26.00264   7.02978   6.21720  2       56
siesta:     26.55066   6.99199   3.40151  2       57
siesta:     10.56357  15.04223  21.08935  1       58
siesta:     12.32102  14.72097  21.37281  2       59
siesta:      9.80768  13.41706  21.08935  2       60
siesta:      7.97465  10.88483  12.77455  1       61
siesta:      7.02978   9.93996  11.56513  2       62
siesta:      7.36993  10.33681  14.38082  2       63
siesta:      2.30547  13.43596   7.38883  1       64
siesta:      1.58737  14.41862   6.04713  2       65
siesta:      2.83459  14.64538   8.61715  2       66
siesta:     12.66117   3.38261   7.67229  1       67
siesta:     12.30212   2.05980   6.50066  2       68
siesta:     12.49109   4.91329   6.70853  2       69
siesta:     26.55066   6.27389   9.44863  1       70
siesta:     25.43572   7.59670   9.95886  2       71
siesta:     28.19473   6.99199   9.59981  2       72
siesta:      7.89906   4.51645   3.28812  1       73
siesta:      8.86282   3.19364   4.06291  2       74
siesta:      6.29279   3.74166   2.91018  2       75
siesta:     28.85613  22.79011   3.74166  1       76
siesta:     27.43883  23.79166   4.25189  2       77
siesta:     30.29232  23.82946   4.08181  2       78
siesta:     15.38238  23.18695   9.52422  1       79
siesta:     16.47842  22.63893  10.84703  2       80
siesta:     16.47842  23.82946   8.23921  2       81
siesta:     23.64048  15.23120  17.51777  1       82
siesta:     24.35858  13.64383  17.08313  2       83
siesta:     24.45307  16.42173  16.42173  2       84
siesta:     23.45151   9.97776  10.90372  1       85
siesta:     21.73186   9.46753  11.13049  2       86
siesta:     23.39482  11.77300  11.01711  2       87
siesta:     11.01711   5.66918  18.25476  1       88
siesta:     11.41395   5.40462  16.49732  2       89
siesta:     11.09270   4.02512  18.97286  2       90
siesta:     22.35547  25.05778  19.72875  1       91
siesta:     21.20274  24.71763  21.08935  2       92
siesta:     23.43261  23.62159  19.67206  2       93
siesta:     21.76965  16.79967  27.74119  1       94
siesta:     21.46730  17.95241  26.38059  2       95
siesta:     22.80900  17.72564  28.89392  2       96
siesta:     21.59958  19.29411  23.22474  1       97
siesta:     20.42795  18.14138  22.44996  2       98
siesta:     23.22474  18.50043  22.99798  2       99
siesta:     20.22008   7.36993   4.81880  1      100
siesta:     21.71296   8.22031   5.40462  2      101
siesta:     20.71141   6.61404   3.25033  2      102
siesta:     16.42173   1.88973   2.19208  1      103
siesta:     15.79812   3.17474   1.07714  2      104
siesta:     14.94774   1.09604   2.85349  2      105
siesta:      8.46598  10.63916   3.53379  1      106
siesta:      9.24076  10.97931   1.94642  2      107
siesta:      8.84392  12.09425   4.55424  2      108
siesta:     17.10203  15.02333  29.66871  1      109
siesta:     15.89260  16.04378  28.76164  2      110
siesta:     18.70830  15.53355  29.02620  2      111
siesta:      5.78256   4.19519  12.35881  1      112
siesta:      4.89439   2.60782  12.32102  2      113
siesta:      7.48332   3.74166  12.73676  2      114
siesta:     14.04067  22.35547  16.95085  1      115
siesta:     13.34147  20.74920  16.49732  2      116
siesta:     14.17295  23.24364  15.38238  2      117
siesta:      8.42818  16.00599  26.19161  1      118
siesta:      6.76522  15.32568  26.45618  2      119
siesta:      9.01400  15.15561  24.69873  2      120
siesta:     -0.20787  22.35547  23.26254  1      121
siesta:      1.51178  22.52554  22.77121  2      122
siesta:     -1.02045  21.63737  21.82635  2      123
siesta:      1.49288   8.88172   9.33525  1      124
siesta:      1.92752  10.54468   8.76833  2      125
siesta:      3.00467   7.91796   9.16518  2      126
siesta:      4.81880  22.56334   8.10693  1      127
siesta:      4.83770  20.78700   7.78567  2      128
siesta:      5.78256  23.26254   6.74632  2      129
siesta:     16.72408   3.28812  20.10669  1      130
siesta:     16.62960   5.08337  20.06890  2      131
siesta:     15.02333   2.72121  19.86103  2      132
siesta:     29.91438  14.09736  14.75877  1      133
siesta:     29.08290  12.54779  15.13671  2      134
siesta:     28.61046  15.34458  14.85325  2      135
siesta:      8.18252  27.43883  18.78389  1      136
siesta:      6.40617  27.60891  19.02955  2      137
siesta:      8.42818  25.71918  18.31145  2      138
siesta:     27.77899   6.23610  21.73186  1      139
siesta:     29.21518   5.57469  20.86258  2      140
siesta:     27.11758   4.83770  22.65783  2      141
siesta:     29.68761  13.09581   1.07714  1      142
siesta:     28.15693  12.39661   0.39684  2      143
siesta:     30.65137  11.65961   1.58737  2      144
siesta:     19.40750  24.11291  24.01843  1      145
siesta:     17.87682  24.58535  23.16805  2      146
siesta:     19.27521  22.33657  24.22630  2      147
siesta:     23.75387  12.45330   3.68497  1      148
siesta:     23.79166  13.81390   4.87550  2      149
siesta:     24.67983  11.13049   4.47865  2      150
siesta:     22.29878  21.18384   9.01400  1      151
siesta:     20.93817  20.82479  10.16673  2      152
siesta:     21.97752  22.88459   8.46598  2      153
siesta:      6.85971  10.67696  25.98374  1      154
siesta:      7.23765  10.31791  24.26409  2      155
siesta:      8.06913   9.71320  26.92861  2      156
siesta:     13.13360  18.44373  28.89392  1      157
siesta:     11.50844  18.34925  28.11914  2      158
siesta:     12.98242  19.76654  30.12225  2      159
siesta:     26.19161   2.75900  25.09557  1      160
siesta:     24.45307   3.23143  24.90660  2      161
siesta:     26.49397   1.62517  23.71607  2      162
siesta:      8.46598  22.33657   4.53534  1      163
siesta:      7.86126  20.80589   3.76056  2      164
siesta:      8.22031  23.60269   3.26923  2      165
siesta:     25.37903  10.71475  16.27055  1      166
siesta:     24.45307   9.67540  17.42328  2      167
siesta:     24.81211  10.18563  14.62649  2      168
siesta:     20.50354   0.94486  23.43261  1      169
siesta:     19.97441   1.02045  25.15226  2      170
siesta:     19.10514   1.58737  22.48775  2      171
siesta:     14.02177   7.88016  24.11291  1      172
siesta:     15.04223   8.50377  22.75231  2      173
siesta:     13.36037   6.31169  23.50820  2      174
siesta:     11.71631  17.83902  16.93195  1      175
siesta:     10.96042  17.36659  18.51932  2      176
siesta:     10.60137  17.15872  15.68473  2      177
siesta:     17.65005   4.08181   8.08803  1      178
siesta:     17.97130   5.32903   6.80302  2      179
siesta:     15.85481   4.08181   8.25811  2      180
siesta:      6.51956  17.83902   2.72121  1      181
siesta:      5.65028  16.28945   3.04246  2      182
siesta:      5.97154  18.33035   1.07714  2      183
siesta:     18.57602  20.69251  13.19029  1      184
siesta:     18.25476  19.50198  14.51310  2      185
siesta:     18.57602  22.29878  14.02177  2      186
siesta:      3.42041  26.90971   4.25189  1      187
siesta:      4.38417  28.30811   4.89439  2      188
siesta:      2.04091  26.73964   5.40462  2      189
siesta:     29.19628  28.76164  14.77766  1      190
siesta:     28.13803  27.34435  14.49421  2      191
siesta:     30.21673  28.30811  16.19496  2      192
siesta:     12.73676  26.24831  13.19029  1      193
siesta:     13.60603  27.83568  13.11470  2      194
siesta:     13.03912  25.49242  11.56513  2      195
siesta:     26.26720  24.86881  12.83125  1      196
siesta:     24.62314  24.47196  12.18874  2      197
siesta:     27.36325  23.71607  11.96197  2      198
siesta:     11.24387  13.56824  29.70651  1      199
siesta:     12.50999  14.85325  29.91438  2      200
siesta:     10.05335  14.30523  28.55377  2      201
siesta:     22.58224  24.33968  28.49708  1      202
siesta:     21.37281  24.35858  27.13648  2      203
siesta:     24.15071  24.77432  27.70340  2      204
siesta:     11.82969   0.90707  20.59802  1      205
siesta:     11.30057   0.96376  22.33657  2      206
siesta:     10.73365  -0.32125  19.82323  2      207
siesta:      2.66451   4.34637   3.57158  1      208
siesta:      2.34326   6.10382   3.72276  2      209
siesta:      2.38106   3.96843   1.83304  2      210
siesta:     28.96951  18.34925  27.59001  1      211
siesta:     28.04355  18.51932  26.04044  2      212
siesta:     27.76009  18.67050  28.87503  2      213
siesta:      7.76678  25.64359  11.73520  1      214
siesta:      9.16518  26.32390  12.64227  2      215
siesta:      8.16362  23.88615  11.54623  2      216
siesta:     21.33502  26.60735  10.48798  1      217
siesta:     21.37281  26.66405  12.28322  2      218
siesta:     22.22319  28.08134   9.95886  2      219
siesta:      4.83770  10.43129  17.66895  1      220
siesta:      4.30858  12.15094  17.70674  2      221
siesta:      3.45820   9.54312  16.89416  2      222
siesta:      6.84081   7.82347   8.69274  1      223
siesta:      6.55735   6.33059   9.65650  2      224
siesta:      7.40773   7.21876   7.08648  2      225
siesta:     17.04534  10.56357  15.36348  1      226
siesta:     18.46263   9.69430  14.64538  2      227
siesta:     15.62804   9.99666  14.39972  2      228
siesta:     26.43728  28.11914  21.73186  1      229
siesta:     26.39948  27.74119  23.48931  2      230
siesta:     24.92550  27.36325  21.07045  2      231
siesta:     20.40905   1.05825  28.81833  1      232
siesta:     19.19963   1.53068  30.08445  2      233
siesta:     20.54133  -0.73699  28.96951  2      234
siesta:      9.78879  14.73987   6.16051  1      235
siesta:      9.46753  16.02488   4.93219  2      236
siesta:     11.56513  14.89105   6.50066  2      237
siesta:     24.49086  19.29411   1.28501  1      238
siesta:     23.92394  18.42484   2.77790  2      239
siesta:     24.58535  21.03266   1.79524  2      240
siesta:     24.37748  16.51621   7.16206  1      241
siesta:     26.07823  16.74298   6.55735  2      242
siesta:     23.71607  18.19807   7.31324  2      243
siesta:     15.15561  25.53021  21.63737  1      244
siesta:     14.75877  27.28766  21.35391  2      245
siesta:     15.21230  24.81211  19.97441  2      246
siesta:      3.26923  14.89105  26.55066  1      247
siesta:      2.68341  13.19029  26.58846  2      248
siesta:      2.11649  15.79812  27.57112  2      249
siesta:      0.86927   7.99354  15.09892  1      250
siesta:      1.20943   8.73054  13.47375  2      251
siesta:     -0.83148   7.44552  15.00443  2      252
siesta:      9.03289   6.42507  28.25142  1      253
siesta:      8.29590   5.99043  29.83879  2      254
siesta:     10.80924   6.21720  28.49708  2      255
siesta:     29.17738  11.18718  24.15071  1      256
siesta:     28.47818   9.82658  23.18695  2      257
siesta:     27.98686  11.47064  25.47352  2      258
siesta:     10.88483  26.15382   7.69119  1      259
siesta:     10.60137  24.39637   7.40773  2      260
siesta:      9.88327  26.53177   9.16518  2      261
siesta:     19.74765   9.88327  25.88926  1      262
siesta:     19.06734  11.31946  25.01998  2      263
siesta:     21.03266  10.56357  26.94751  2      264
siesta:      4.00622  20.01221  28.44039  1      265
siesta:      4.96998  18.99176  27.28766  2      266
siesta:      2.28657  19.70985  27.98686  2      267
siesta:     18.40594  24.47196   5.36682  1      268
siesta:     20.08780  23.82946   5.21565  2      269
siesta:     18.10358  25.32234   3.77945  2      270
siesta:     26.62625  18.10358  14.28634  1      271
siesta:     27.81678  19.29411  13.60603  2      272
siesta:     25.62470  17.61225  12.86904  2      273
siesta:      5.17785  28.87503  24.90660  1      274
siesta:      3.93063  28.28921  23.73497  2      275
siesta:      4.21409  29.61202  26.24831  2      276
siesta:      2.94797  20.65471  17.06423  1      277
siesta:      3.91173  21.33502  18.42484  2      278
siesta:      3.55269  18.95396  16.87526  2      279
siesta:      0.88817  21.37281  12.16984  1      280
siesta:      1.90862  22.29878  10.99821  2      281
siesta:      1.70075  21.61848  13.75721  2      282
siesta:      3.72276  17.61225  10.11004  1      283
siesta:      5.17785  17.36659  11.16829  2      284
siesta:      2.41885  18.14138  11.22498  2      285
siesta:      9.42974   2.58893  24.71763  1      286
siesta:      8.08803   1.37950  24.75542  2      287
siesta:      8.88172   3.89284  25.85146  2      288
siesta:      8.86282  20.69251  11.11159  1      289
siesta:      7.69119  20.69251   9.75099  2      290
siesta:      8.65495  19.04845  11.86748  2      291
siesta:     12.32102   8.03134   5.51800  1      292
siesta:     13.51155   8.27700   4.17630  2      293
siesta:     10.84703   8.91951   4.95108  2      294
siesta:      9.01400  20.67361  22.14760  1      295
siesta:      8.65495  21.80745  20.78700  2      296
siesta:      9.16518  19.04845  21.35391  2      297
siesta:     16.93195   0.52912  12.71786  1      298
siesta:     16.70519   2.02201  11.71631  2      299
siesta:     18.00910  -0.52912  11.71631  2      300
siesta:      9.27856   9.59981  20.93817  1      301
siesta:      7.55891   9.84548  20.40905  2      302
siesta:      9.76989   8.05024  20.12559  2      303
siesta:      3.15584   9.58092   3.38261  1      304
siesta:      2.66451   9.90217   5.10226  2      305
siesta:      4.85660  10.20453   3.26923  2      306
siesta:     13.85170  21.58068   4.04402  1      307
siesta:     15.25010  22.33657   4.87550  2      308
siesta:     12.39661  22.39326   4.76211  2      309
siesta:     26.02154  17.00754  21.80745  1      310
siesta:     27.62781  16.21386  22.09091  2      311
siesta:     25.41683  16.27055  20.27677  2      312
siesta:     26.58846  21.86414  18.25476  1      313
siesta:     26.70184  20.29567  17.36659  2      314
siesta:     26.55066  23.11136  16.95085  2      315
siesta:      2.21098  28.74275  20.10669  1      316
siesta:      0.43464  28.55377  20.44684  2      317
siesta:      2.49444  30.51909  20.23897  2      318
siesta:     11.73520  23.28144  25.60580  1      319
siesta:     10.75255  22.07201  24.67983  2      320
siesta:     12.88794  23.98063  24.37748  2      321
siesta:     25.22785  11.58403  28.17583  1      322
siesta:     24.62314  13.26588  28.00575  2      323
siesta:     24.45307  10.96042  29.66871  2      324
siesta:     27.00420   3.77945  16.32724  1      325
siesta:     27.98686   2.72121  15.25010  2      326
siesta:     25.32234   3.70386  15.64694  2      327
siesta:     14.30523   6.25500  28.83723  1      328
siesta:     15.19340   7.52111  29.76320  2      329
siesta:     14.15405   6.93530  27.17427  2      330
siesta:      4.93219  24.26409  21.05156  1      331
siesta:      3.85504  25.70029  20.76810  2      332
siesta:      5.95264  24.73652  22.44996  2      333
siesta:     17.72564  18.08469   4.06291  1      334
siesta:     17.53667  16.98864   2.62672  2      335
siesta:     16.45952  19.35080   3.83615  2      336
siesta:     18.06579  14.68318  12.85014  1      337
siesta:     17.47997  13.43596  14.02177  2      338
siesta:     17.02644  14.45641  11.37616  2      339
siesta:      5.61249   1.24722   6.87861  1      340
siesta:      4.89439   2.81569   6.31169  2      341
siesta:      4.72432   0.85038   8.39039  2      342
siesta:      4.34637  15.85481  16.96975  1      343
siesta:      3.70386  15.83591  18.67050  2      344
siesta:      3.04246  15.13671  15.96819  2      345
siesta:     12.45330   8.97620  12.33992  1      346
siesta:     10.84703   9.73209  12.66117  2      347
siesta:     12.69896   9.18407  10.56357  2      348
siesta:     22.37437   9.14628  19.86103  1      349
siesta:     22.43106  10.37460  21.20274  2      350
siesta:     23.43261   7.80457  20.42795  2      351
siesta:     14.62649  15.96819   8.40928  1      352
siesta:     13.09581  16.79967   8.90061  2      353
siesta:     15.38238  17.08313   7.21876  2      354
siesta:      0.01890  27.23096   8.12583  1      355
siesta:      0.94486  28.17583   9.35415  2      356
siesta:     -0.96376  28.47818   7.23765  2      357
siesta:      8.82502  22.63893  17.02644  1      358
siesta:      8.48487  22.97908  15.28789  2      359
siesta:     10.60137  22.86570  17.19651  2      360
siesta:     15.81701  10.62027   8.01244  1      361
siesta:     14.58869   9.95886   6.85971  2      362
siesta:     15.81701  12.39661   7.72898  2      363
siesta:     11.50844  29.47974   4.15740  1      364
siesta:     10.97931  28.78054   2.57003  2      365
siesta:     11.01711  28.25142   5.38572  2      366
siesta:     19.38860  25.56800  15.51466  1      367
siesta:     20.18228  25.39793  17.12093  2      368
siesta:     19.12404  27.34435  15.32568  2      369
siesta:     23.26254  15.04223  11.75410  1      370
siesta:     21.56178  15.17451  12.32102  2      371
siesta:     23.16805  15.30679   9.95886  2      372
siesta:     19.10514   7.84237  10.99821  1      373
siesta:     18.67050   6.40617   9.97776  2      374
siesta:     18.16028   9.20297  10.28011  2      375
siesta:     26.62625   4.04402   1.28501  1      376
siesta:     24.92550   4.08181   0.66140  2      377
siesta:     27.60891   3.32592  -0.05669  2      378
siesta:      3.32592  29.34746  11.67851  1      379
siesta:      4.64873  28.19473  12.15094  2      380
siesta:      1.88973  28.81833  12.64227  2      381
siesta:      8.10693  16.10047  13.19029  1      382
siesta:      6.97309  16.51621  14.53200  2      383
siesta:      8.06913  14.28634  13.13360  2      384

siesta: System type = bulk      

initatomlists: Number of atoms, orbitals, and projectors:    384  2944  4352

siesta: ******************** Simulation parameters ****************************
siesta:
siesta: The following are some of the parameters of the simulation.
siesta: A complete list of the parameters used, including default values,
siesta: can be found in file out.fdf
siesta:
redata: Non-Collinear-spin run           =     F
redata: SpinPolarized (Up/Down) run      =     F
redata: Number of spin components        =     1
redata: Long output                      =     F
redata: Number of Atomic Species         =        2
redata: Charge density info will appear in .RHO file
redata: Write Mulliken Pop.              =     NO
redata: Mesh Cutoff                      =   150.0000  Ry
redata: Net charge of the system         =     0.0000 |e|
redata: Min. number of SCF Iter          =        0
redata: Max. number of SCF Iter          =       50
redata: Mix DM or H after convergence    =     F
redata: Recompute H after scf cycle      =     F
redata: Performing Pulay mixing using    =     3 iterations
redata: Mix DM in first SCF step ?       =     F
redata: Write Pulay info on disk?        =     F
redata: Discard 1st Pulay DM after  kick =     F
redata: New DM Mixing Weight             =     0.3000
redata: New DM Occupancy tolerance       = 0.000000000001
redata: No kicks to SCF
redata: DM Mixing Weight for Kicks       =     0.5000
redata: DM Tolerance for SCF             =     0.000100
redata: Require (free) Energy convergence in SCF =     F
redata: DM (free)Energy tolerance for SCF =     0.000010 eV
redata: Require Harris convergence for SCF =     F
redata: DM Harris energy tolerance for SCF =     0.000010 eV
redata: Using Saved Data (generic)   =     F
redata: Use continuation files for DM    =     F
redata: Neglect nonoverlap interactions  =     F
redata: Method of Calculation            =     old SLEPc
redata: Fix the spin of the system       =     F
redata: Dynamics option                  =     Single-point calculation
redata: ***********************************************************************
Total number of electrons:  1024.000000
Total ionic charge:  1024.000000

* ProcessorY, Blocksize:    8  23


* Orbital distribution balance (max,min):    23    23

 Kpoints in:            1 . Kpoints trimmed:            1

siesta: k-grid: Number of k-points =     1
siesta: k-grid: Cutoff (effective) =     7.823 Ang
siesta: k-grid: Supercell and displacements
siesta: k-grid:    1   0   0      0.000
siesta: k-grid:    0   1   0      0.000
siesta: k-grid:    0   0   1      0.000

                     ====================================
                        Single-point calculation
                     ====================================

outcell: Unit cell vectors (Ang):
       15.646046    0.000000    0.000000
        0.000000   15.646046    0.000000
        0.000000    0.000000   15.646046

outcell: Cell vector modules (Ang)   :   15.646046   15.646046   15.646046
outcell: Cell angles (23,13,12) (deg):     90.0000     90.0000     90.0000
outcell: Cell volume (Ang**3)        :   3830.1327
New_DM. Step:     1
Initializing Density Matrix...
New grid distribution:   1
           1       1:   60    1:    8    1:    4
           2       1:   60    1:    8    5:    8
           3       1:   60    1:    8    9:   12
           4       1:   60    1:    8   13:   16
           5       1:   60    1:    8   17:   20
           6       1:   60    1:    8   21:   24
           7       1:   60    1:    8   25:   28
           8       1:   60    1:    8   29:   32
           9       1:   60    1:    8   33:   36
          10       1:   60    1:    8   37:   40
          11       1:   60    1:    8   41:   44
          12       1:   60    1:    8   45:   48
          13       1:   60    1:    8   49:   51
          14       1:   60    1:    8   52:   54
          15       1:   60    1:    8   55:   57
          16       1:   60    1:    8   58:   60
          17       1:   60    9:   16    1:    4
          18       1:   60    9:   16    5:    8
          19       1:   60    9:   16    9:   12
          20       1:   60    9:   16   13:   16
          21       1:   60    9:   16   17:   20
          22       1:   60    9:   16   21:   24
          23       1:   60    9:   16   25:   28
          24       1:   60    9:   16   29:   32
          25       1:   60    9:   16   33:   36
          26       1:   60    9:   16   37:   40
          27       1:   60    9:   16   41:   44
          28       1:   60    9:   16   45:   48
          29       1:   60    9:   16   49:   51
          30       1:   60    9:   16   52:   54
          31       1:   60    9:   16   55:   57
          32       1:   60    9:   16   58:   60
          33       1:   60   17:   24    1:    4
          34       1:   60   17:   24    5:    8
          35       1:   60   17:   24    9:   12
          36       1:   60   17:   24   13:   16
          37       1:   60   17:   24   17:   20
          38       1:   60   17:   24   21:   24
          39       1:   60   17:   24   25:   28
          40       1:   60   17:   24   29:   32
          41       1:   60   17:   24   33:   36
          42       1:   60   17:   24   37:   40
          43       1:   60   17:   24   41:   44
          44       1:   60   17:   24   45:   48
          45       1:   60   17:   24   49:   51
          46       1:   60   17:   24   52:   54
          47       1:   60   17:   24   55:   57
          48       1:   60   17:   24   58:   60
          49       1:   60   25:   32    1:    4
          50       1:   60   25:   32    5:    8
          51       1:   60   25:   32    9:   12
          52       1:   60   25:   32   13:   16
          53       1:   60   25:   32   17:   20
          54       1:   60   25:   32   21:   24
          55       1:   60   25:   32   25:   28
          56       1:   60   25:   32   29:   32
          57       1:   60   25:   32   33:   36
          58       1:   60   25:   32   37:   40
          59       1:   60   25:   32   41:   44
          60       1:   60   25:   32   45:   48
          61       1:   60   25:   32   49:   51
          62       1:   60   25:   32   52:   54
          63       1:   60   25:   32   55:   57
          64       1:   60   25:   32   58:   60
          65       1:   60   33:   39    1:    4
          66       1:   60   33:   39    5:    8
          67       1:   60   33:   39    9:   12
          68       1:   60   33:   39   13:   16
          69       1:   60   33:   39   17:   20
          70       1:   60   33:   39   21:   24
          71       1:   60   33:   39   25:   28
          72       1:   60   33:   39   29:   32
          73       1:   60   33:   39   33:   36
          74       1:   60   33:   39   37:   40
          75       1:   60   33:   39   41:   44
          76       1:   60   33:   39   45:   48
          77       1:   60   33:   39   49:   51
          78       1:   60   33:   39   52:   54
          79       1:   60   33:   39   55:   57
          80       1:   60   33:   39   58:   60
          81       1:   60   40:   46    1:    4
          82       1:   60   40:   46    5:    8
          83       1:   60   40:   46    9:   12
          84       1:   60   40:   46   13:   16
          85       1:   60   40:   46   17:   20
          86       1:   60   40:   46   21:   24
          87       1:   60   40:   46   25:   28
          88       1:   60   40:   46   29:   32
          89       1:   60   40:   46   33:   36
          90       1:   60   40:   46   37:   40
          91       1:   60   40:   46   41:   44
          92       1:   60   40:   46   45:   48
          93       1:   60   40:   46   49:   51
          94       1:   60   40:   46   52:   54
          95       1:   60   40:   46   55:   57
          96       1:   60   40:   46   58:   60
          97       1:   60   47:   53    1:    4
          98       1:   60   47:   53    5:    8
          99       1:   60   47:   53    9:   12
         100       1:   60   47:   53   13:   16
         101       1:   60   47:   53   17:   20
         102       1:   60   47:   53   21:   24
         103       1:   60   47:   53   25:   28
         104       1:   60   47:   53   29:   32
         105       1:   60   47:   53   33:   36
         106       1:   60   47:   53   37:   40
         107       1:   60   47:   53   41:   44
         108       1:   60   47:   53   45:   48
         109       1:   60   47:   53   49:   51
         110       1:   60   47:   53   52:   54
         111       1:   60   47:   53   55:   57
         112       1:   60   47:   53   58:   60
         113       1:   60   54:   60    1:    4
         114       1:   60   54:   60    5:    8
         115       1:   60   54:   60    9:   12
         116       1:   60   54:   60   13:   16
         117       1:   60   54:   60   17:   20
         118       1:   60   54:   60   21:   24
         119       1:   60   54:   60   25:   28
         120       1:   60   54:   60   29:   32
         121       1:   60   54:   60   33:   36
         122       1:   60   54:   60   37:   40
         123       1:   60   54:   60   41:   44
         124       1:   60   54:   60   45:   48
         125       1:   60   54:   60   49:   51
         126       1:   60   54:   60   52:   54
         127       1:   60   54:   60   55:   57
         128       1:   60   54:   60   58:   60

InitMesh: MESH =   120 x   120 x   120 =     1728000
InitMesh: (bp) =    60 x    60 x    60 =      216000
InitMesh: Mesh cutoff (required, used) =   150.000   162.575 Ry
ExtMesh (bp) on 0 =   112 x    60 x    56 =      376320
New grid distribution:   2
           1       1:   16    1:   16   29:   37
           2      30:   45    1:   15    1:    7
           3      46:   60    1:   15    8:   14
           4       1:   16   18:   30   47:   53
           5       1:   15    1:   15   14:   20
           6       1:   15    1:   15   21:   28
           7       1:   13   30:   46   23:   28
           8      31:   46    1:   17   29:   38
           9      17:   30    1:   16   29:   39
          10      30:   43   17:   29   22:   28
          11      31:   46    1:   17   39:   44
          12       1:   15    1:   17   47:   53
          13       1:   16    1:   16   38:   46
          14       1:   15    1:   15    1:    7
          15       1:   15    1:   17   54:   60
          16      30:   43   17:   29   15:   21
          17      47:   60    1:   17   37:   44
          18      46:   60    1:   15    1:    7
          19      30:   45    1:   15    8:   14
          20       1:   15    1:   15    8:   13
          21      43:   60    1:   16   15:   20
          22      43:   60    1:   16   21:   28
          23       1:   16   16:   29    1:    7
          24      17:   29   16:   29    1:    7
          25      16:   29    1:   15   21:   28
          26      30:   45   16:   29    1:    7
          27      17:   30   18:   30   47:   53
          28      31:   47    1:   16   45:   53
          29      16:   30    1:   17   47:   53
          30      17:   30    1:   16   40:   46
          31      31:   47    1:   16   54:   60
          32       1:   15   47:   60   16:   21
          33      29:   45   30:   45   22:   28
          34      16:   29    1:   15    1:    8
          35      30:   45   16:   29    8:   14
          36      16:   29   16:   29   14:   20
          37      44:   60   17:   29   15:   22
          38      16:   29   16:   29   21:   28
          39      44:   60   17:   29   23:   28
          40      14:   30   17:   30   29:   38
          41       1:   15   47:   60   22:   28
          42       1:   13   17:   30   37:   46
          43      30:   42    1:   16   15:   20
          44      44:   60   17:   30   45:   53
          45      44:   60   47:   60   37:   44
          46      16:   29    1:   15   14:   20
          47      16:   30    1:   17   54:   60
          48      17:   30   18:   30   54:   60
          49      44:   60   47:   60   29:   36
          50      48:   60    1:   16   45:   52
          51      46:   60   16:   29    8:   14
          52       1:   16   16:   29    8:   13
          53      29:   45   30:   45   15:   21
          54       1:   15   16:   29   21:   28
          55       1:   15   16:   29   14:   20
          56      47:   60   18:   30   29:   35
          57      47:   60    1:   17   29:   36
          58      48:   60    1:   16   53:   60
          59      16:   28   47:   60   16:   21
          60      47:   60   31:   44   45:   52
          61      14:   30   17:   30   39:   46
          62      46:   60   16:   29    1:    7
          63      44:   60   17:   30   54:   60
          64       1:   13   31:   44   29:   34
          65       1:   15   30:   45    1:    7
          66      31:   43   17:   30   45:   52
          67      29:   46   30:   43    7:   14
          68      47:   60   30:   43    8:   14
          69      14:   28   30:   46   16:   22
          70       1:   13   30:   46   16:   22
          71      46:   60   30:   45   23:   28
          72      28:   50   31:   46   29:   35
          73      14:   27   31:   44   29:   35
          74      28:   50   31:   46   36:   44
          75      14:   27   31:   44   36:   43
          76       1:   13   31:   44   44:   53
          77      28:   46   31:   44   45:   53
          78       1:   13   31:   44   54:   60
          79      28:   46   31:   44   54:   60
          80      47:   60   31:   44   53:   60
          81      29:   46   30:   43    1:    6
          82      47:   60   30:   43    1:    7
          83       1:   15   30:   45    8:   15
          84      16:   28   30:   45    8:   15
          85      46:   60   30:   45   15:   22
          86      30:   42    1:   16   21:   28
          87      14:   28   30:   46   23:   28
          88      51:   60   31:   46   29:   35
          89      31:   46   18:   30   37:   44
          90      31:   43   17:   30   53:   60
          91      51:   60   31:   46   36:   44
          92      14:   27   31:   44   44:   53
          93      15:   28   46:   60    1:    9
          94      31:   46   18:   30   29:   36
          95       1:   16   18:   30   54:   60
          96      14:   27   31:   44   54:   60
          97      29:   47   44:   60    1:    8
          98       1:   14   46:   60    1:    9
          99      48:   60   44:   60    8:   14
         100       1:   14   46:   60   10:   15
         101      29:   43   46:   60   15:   22
         102      16:   28   47:   60   22:   28
         103      44:   60   46:   60   23:   28
         104       1:   15   45:   60   29:   37
         105      16:   27   45:   60   29:   36
         106      28:   43   47:   60   36:   44
         107       1:   15   45:   60   38:   43
         108      13:   27   45:   60   44:   50
         109       1:   12   45:   60   44:   51
         110      28:   47   45:   60   51:   60
         111       1:   12   45:   60   52:   60
         112      17:   29   16:   29    8:   13
         113      48:   60   45:   60   53:   60
         114      48:   60   44:   60    1:    7
         115      29:   47   44:   60    9:   14
         116      15:   28   46:   60   10:   15
         117      44:   60   46:   60   15:   22
         118       1:   13   31:   44   35:   43
         119      29:   43   46:   60   23:   28
         120      28:   43   47:   60   29:   35
         121      47:   60   18:   30   36:   44
         122       1:   13   17:   30   29:   36
         123      16:   27   45:   60   37:   43
         124      28:   47   45:   60   45:   50
         125      48:   60   45:   60   45:   52
         126      13:   27   45:   60   51:   60
         127      16:   28   30:   45    1:    7
         128      16:   29    1:   15    9:   13
New grid distribution:   3
           1      31:   45    1:   15   31:   38
           2       1:   15   46:   60   24:   30
           3      31:   45    1:   15    9:   15
           4       1:   15    1:   15   16:   23
           5      31:   45    1:   15   16:   23
           6      46:   60   46:   60   39:   45
           7      46:   60   31:   45    9:   15
           8       1:   15    1:   15   31:   38
           9      16:   30   16:   30   16:   23
          10      31:   45   46:   60   39:   45
          11       1:   15    1:   15   39:   45
          12       1:   15    1:   15   46:   53
          13      16:   30    1:   15   46:   53
          14      31:   45    1:   15   46:   53
          15      46:   60    1:   15   54:   60
          16      31:   45    1:   15   39:   45
          17      46:   60   46:   60   16:   23
          18       1:   15   16:   30    1:    8
          19      16:   30    1:   15    9:   15
          20      46:   60   16:   30    9:   15
          21      46:   60   16:   30   16:   23
          22       1:   15    1:   15    9:   15
          23      46:   60    1:   15    9:   15
          24      46:   60    1:   15   31:   38
          25      16:   30    1:   15   31:   38
          26       1:   15    1:   15   24:   30
          27      46:   60    1:   15   39:   45
          28      46:   60    1:   15   46:   53
          29      46:   60   46:   60    1:    8
          30      16:   30    1:   15   16:   23
          31      16:   30   31:   45   54:   60
          32      31:   45    1:   15   54:   60
          33      46:   60   46:   60   46:   53
          34      46:   60   16:   30    1:    8
          35       1:   15   16:   30    9:   15
          36      31:   45   16:   30    9:   15
          37       1:   15   16:   30   16:   23
          38      46:   60   16:   30   24:   30
          39       1:   15   16:   30   24:   30
          40      31:   45   16:   30   31:   38
          41      16:   30   16:   30   31:   38
          42       1:   15   46:   60   54:   60
          43      31:   45   16:   30   39:   45
          44      31:   45   16:   30   46:   53
          45       1:   15   16:   30   46:   53
          46       1:   15   31:   45   16:   23
          47      31:   45   16:   30   54:   60
          48      16:   30   16:   30   54:   60
          49      46:   60   46:   60   31:   38
          50      16:   30   16:   30    1:    8
          51      16:   30    1:   15   24:   30
          52      31:   45   31:   45    9:   15
          53      31:   45   31:   45   16:   23
          54       1:   15   31:   45   24:   30
          55      16:   30   16:   30   24:   30
          56      46:   60   16:   30   31:   38
          57       1:   15   16:   30   31:   38
          58       1:   15   31:   45   54:   60
          59      46:   60   16:   30   39:   45
          60      46:   60   16:   30   46:   53
          61      16:   30   16:   30   46:   53
          62      16:   30    1:   15    1:    8
          63      46:   60   16:   30   54:   60
          64      16:   30   16:   30   39:   45
          65      46:   60   31:   45    1:    8
          66      16:   30   31:   45    1:    8
          67      31:   45   31:   45   39:   45
          68      16:   30   31:   45    9:   15
          69      16:   30   31:   45   16:   23
          70      46:   60   31:   45   39:   45
          71      16:   30   31:   45   24:   30
          72       1:   15   31:   45   31:   38
          73      46:   60   31:   45   31:   38
          74       1:   15   16:   30   39:   45
          75      16:   30   31:   45   39:   45
          76      31:   45   31:   45   46:   53
          77      16:   30   31:   45   46:   53
          78       1:   15    1:   15    1:    8
          79      31:   45   31:   45   54:   60
          80      46:   60    1:   15   24:   30
          81      31:   45   31:   45    1:    8
          82       1:   15   31:   45    1:    8
          83      16:   30   46:   60   54:   60
          84      31:   45   46:   60    9:   15
          85      46:   60   31:   45   16:   23
          86      16:   30   16:   30    9:   15
          87      16:   30   46:   60   24:   30
          88      16:   30   31:   45   31:   38
          89      31:   45   31:   45   31:   38
          90      16:   30    1:   15   39:   45
          91       1:   15   31:   45   39:   45
          92       1:   15   31:   45   46:   53
          93      46:   60   31:   45   46:   53
          94      46:   60    1:   15   16:   23
          95      46:   60   31:   45   54:   60
          96      31:   45   16:   30   24:   30
          97      31:   45   46:   60    1:    8
          98       1:   15   46:   60    1:    8
          99      46:   60   31:   45   24:   30
         100       1:   15   46:   60    9:   15
         101       1:   15   46:   60   16:   23
         102      31:   45   31:   45   24:   30
         103      31:   45   46:   60   24:   30
         104       1:   15   46:   60   31:   38
         105      31:   45   46:   60   31:   38
         106      46:   60    1:   15    1:    8
         107      16:   30   46:   60   39:   45
         108      31:   45    1:   15   24:   30
         109       1:   15   46:   60   46:   53
         110      31:   45   16:   30    1:    8
         111      31:   45   46:   60   54:   60
         112       1:   15   16:   30   54:   60
         113      31:   45    1:   15    1:    8
         114       1:   15   31:   45    9:   15
         115      16:   30   46:   60    9:   15
         116      31:   45   46:   60   16:   23
         117      16:   30   46:   60   16:   23
         118      31:   45   16:   30   16:   23
         119      46:   60   46:   60    9:   15
         120      46:   60   46:   60   24:   30
         121      16:   30   46:   60   31:   38
         122       1:   15    1:   15   54:   60
         123       1:   15   46:   60   39:   45
         124      16:   30   46:   60   46:   53
         125      31:   45   46:   60   46:   53
         126      16:   30   46:   60    1:    8
         127      46:   60   46:   60   54:   60
         128      16:   30    1:   15   54:   60
Setting up quadratic distribution...
ExtMesh (bp) on 0 =    68 x    68 x    61 =      282064
PhiOnMesh: Number of (b)points on node 0 =                 2304
PhiOnMesh: nlist on node 0 =                74057
QETSC: Last update           = Nov 14, 2017
QETSC: Number of ranks       =         128
QETSC: Number of slices      =          32
QETSC: Number of ranks/slice =           4
QETSC: Number of evals/slice =  16.00
QETSC: Number of req. evals  =         512
QETSC: Number of rows (all)  =        2944
QETSC: Number of rows (max)  =          23
QETSC: Number of rows (min)  =          23
QETSC: Number of nonzeros    =      808032
QETSC: Nonzero % (all)       =   9.32
QETSC: Nonzero % (max)       =  10.69
QETSC: Nonzero % (min)       =   7.68
QETSC: Density option        =           0
QETSC: Bin type given        =           7
QETSC: Bin buffer given      =   0.01
QETSC: Diff thresh           =   0.10
QETSC: Infinity type         =           2
QETSC: Inertia type          =           1
 QETSC: Shifts, inertias         =
 -Infinity     0
    -2.300     0
    -2.226   128
    -2.152   128
    -2.077   128
    -2.003   128
    -1.929   128
    -1.855   128
    -1.781   128
    -1.706   128
    -1.632   128
    -1.558   128
    -1.484   128
    -1.410   128
    -1.335   132
    -1.261   256
    -1.187   256
    -1.113   328
    -1.039   384
    -0.965   499
    -0.890   512
    -0.816   512
    -0.742   512
    -0.668   512
    -0.594   512
    -0.519   512
    -0.445   512
    -0.371   512
    -0.297   512
    -0.223   512
    -0.148   512
    -0.074   512
     0.000   512
 QETSc: Custers,iter,crange,npcmax,trial           1   1.7177329820467557E-002          26          36
-2.2855090725806448E+00
-2.2704385080645157E+00
-2.2553679435483871E+00
-2.2402973790322580E+00
-2.2263860887096771E+00
-1.4096774193548387E+00
-1.3911290322580645E+00
-1.3725806451612903E+00
-1.3540322580645161E+00
-1.3205254942767950E+00
-1.3049687825182101E+00
-1.2894120707596253E+00
-1.2738553590010406E+00
-1.2618886576482831E+00
-1.1706093189964157E+00
-1.1530913978494624E+00
-1.1355734767025090E+00
-1.1180555555555554E+00
-1.1009792626728110E+00
-1.0837557603686634E+00
-1.0665322580645160E+00
-1.0493087557603686E+00
-1.0309677419354837E+00
-1.0141935483870967E+00
-9.9741935483870958E-01
-9.8064516129032242E-01
-9.6451612903225792E-01
-9.4168734491315120E-01
-9.1885856079404460E-01
-9.0173697270471453E-01
-8.9032258064516123E-01
 QETSC: Bins             =
              -Infinity
-2.2999999999999998E+00
-2.2824949596774191E+00
-2.2674243951612900E+00
-2.2523538306451614E+00
-2.2375151209677417E+00
-2.0630443548387096E+00
-1.4059677419354839E+00
-1.3874193548387097E+00
-1.3688709677419355E+00
-1.3473309053069720E+00
-1.3174141519250779E+00
-1.3018574401664931E+00
-1.2863007284079084E+00
-1.2714620187304890E+00
-1.2436327899179096E+00
-1.1671057347670251E+00
-1.1495878136200717E+00
-1.1320698924731183E+00
-1.1146402969790066E+00
-1.0975345622119814E+00
-1.0803110599078338E+00
-1.0630875576036865E+00
-1.0456405529953916E+00
-1.0276129032258063E+00
-1.0108387096774194E+00
-9.9406451612903213E-01
-9.7741935483870956E-01
-9.5995037220843660E-01
-9.3712158808932988E-01
-9.1543424317617861E-01
-8.9945409429280387E-01
-8.9032258064516123E-01
QETSC: Started iter            1
QETSC: Bin type used         =           7
QETSC: Buffer used           =   0.0000000000000000E+00
QETSC: EPS interval          = -Infinity,    -0.890
QETSC: Inertia type          =           1
SLEPc: EPSSolve time = 24 -0.000e+00
SLEPc: EPSSolve time = 9 9.537e-07
SLEPc: EPSSolve time = 6 -0.000e+00
SLEPc: EPSSolve time = 7 -0.000e+00
SLEPc: EPSSolve time = 22 9.537e-07
SLEPc: EPSSolve time = 0 9.537e-07
SLEPc: EPSSolve time = 29 -0.000e+00
SLEPc: EPSSolve time = 8 9.537e-07
SLEPc: EPSSolve time = 23 -0.000e+00
SLEPc: EPSSolve time = 30 -0.000e+00
SLEPc: EPSSolve time = 31 9.537e-07
SLEPc: EPSSolve time = 28 5.449e-01
SLEPc: EPSSolve time = 14 6.139e-01
SLEPc: EPSSolve time = 15 6.450e-01
SLEPc: EPSSolve time = 21 6.755e-01
SLEPc: EPSSolve time = 25 7.897e-01
SLEPc: EPSSolve time = 1 8.297e-01
SLEPc: EPSSolve time = 16 8.768e-01
SLEPc: EPSSolve time = 17 9.130e-01
SLEPc: EPSSolve time = 20 9.159e-01
SLEPc: EPSSolve time = 13 9.165e-01
SLEPc: EPSSolve time = 4 9.683e-01
SLEPc: EPSSolve time = 18 1.009e+00
SLEPc: EPSSolve time = 19 1.017e+00
SLEPc: EPSSolve time = 5 1.117e+00
SLEPc: EPSSolve time = 12 1.135e+00
SLEPc: EPSSolve time = 2 1.394e+00
SLEPc: EPSSolve time = 11 1.497e+00
SLEPc: EPSSolve time = 10 1.498e+00
SLEPc: EPSSolve time = 3 1.513e+00
SLEPc: EPSSolve time = 26 1.523e+00
SLEPc: EPSSolve time = 27 1.631e+00
 QETSC: Eigenvalues         =
-2.2942690628638571E+00
-2.2915884994268305E+00
-2.2896858110338401E+00
-2.2887702009457525E+00
-2.2871893855729448E+00
-2.2864442652007417E+00
-2.2861183249688311E+00
-2.2846526193644552E+00
-2.2842757447039785E+00
-2.2838849403206778E+00
-2.2832597376959041E+00
-2.2826202848782251E+00
-2.2817977344224278E+00
-2.2807723115622287E+00
-2.2799192958440559E+00
-2.2796736362091159E+00
-2.2794625646580866E+00
-2.2790387687066955E+00
-2.2787413898884057E+00
-2.2783042953034256E+00
-2.2777764625693879E+00
-2.2770836314233702E+00
-2.2762865963741197E+00
-2.2762324003647629E+00
-2.2753415859654433E+00
-2.2749900341087317E+00
-2.2743175385742456E+00
-2.2738690925800431E+00
-2.2736510144794488E+00
-2.2731601396882755E+00
-2.2722736355817768E+00
-2.2718626563831257E+00
-2.2716372485798821E+00
-2.2710654791752480E+00
-2.2707219991946848E+00
-2.2705307103515846E+00
-2.2702128741827923E+00
-2.2697960991564634E+00
-2.2694817321836713E+00
-2.2692816488981724E+00
-2.2688425602154210E+00
-2.2680687756558626E+00
-2.2679429933437794E+00
-2.2676212969956762E+00
-2.2672988907781595E+00
-2.2669586985753862E+00
-2.2668328576733203E+00
-2.2664664309775113E+00
-2.2656407982547893E+00
-2.2653840999887489E+00
-2.2649376208510659E+00
-2.2647348708357256E+00
-2.2644244984416080E+00
-2.2635433553312936E+00
-2.2628490005012649E+00
-2.2624087521996392E+00
-2.2623506366962975E+00
-2.2617181215856257E+00
-2.2612513005230550E+00
-2.2609308312036607E+00
-2.2604805978020068E+00
-2.2600941457423729E+00
-2.2597923696346442E+00
-2.2594101258119479E+00
-2.2591144678961985E+00
-2.2588591469392467E+00
-2.2583724585687999E+00
-2.2580516869674687E+00
-2.2580424795142569E+00
-2.2573448842360277E+00
-2.2569543881497971E+00
-2.2564376889887789E+00
-2.2559933633997011E+00
-2.2558656814643578E+00
-2.2553007672866561E+00
-2.2550969554695075E+00
-2.2547972045740030E+00
-2.2546543721031465E+00
-2.2542411458000573E+00
-2.2539680889141493E+00
-2.2535887348904371E+00
-2.2534487633562215E+00
-2.2526824243288996E+00
-2.2524086470317402E+00
-2.2520019439767807E+00
-2.2513253251998577E+00
-2.2508525752912085E+00
-2.2506949894747366E+00
-2.2503018747014814E+00
-2.2497046828230189E+00
-2.2492648373515043E+00
-2.2491269551968407E+00
-2.2488743932100221E+00
-2.2483663850319950E+00
-2.2480622530978644E+00
-2.2477776116620118E+00
-2.2474912365688460E+00
-2.2472005157425721E+00
-2.2464806025795627E+00
-2.2458533768743920E+00
-2.2455471228922512E+00
-2.2453992139904804E+00
-2.2450032156302235E+00
-2.2448901664100807E+00
-2.2446090978923525E+00
-2.2442362860971472E+00
-2.2438517150093533E+00
-2.2433067158924858E+00
-2.2432047274448808E+00
-2.2428937088340386E+00
-2.2418899504685128E+00
-2.2414957006645317E+00
-2.2413577556986661E+00
-2.2408570790784630E+00
-2.2400244344650839E+00
-2.2399512944190079E+00
-2.2396231876030051E+00
-2.2391501246639813E+00
-2.2389536954553950E+00
-2.2388145908866885E+00
-2.2381296113940596E+00
-2.2375063830581978E+00
-2.2367386846958377E+00
-2.2364835818636282E+00
-2.2362797728032295E+00
-2.2356807818424462E+00
-2.2352029993877180E+00
-2.2340754124455104E+00
-1.3450505335234662E+00
-1.3381209246641659E+00
-1.3370903547844737E+00
-1.3360518880035663E+00
-1.3350334222314879E+00
-1.3338060640964375E+00
-1.3328997541345191E+00
-1.3319546925474115E+00
-1.3315511895019765E+00
-1.3310438176414898E+00
-1.3304846795407843E+00
-1.3294713142958596E+00
-1.3282467512108620E+00
-1.3266832116188199E+00
-1.3260468933927565E+00
-1.3256506200596336E+00
-1.3251920441323946E+00
-1.3247084077716007E+00
-1.3237405619326554E+00
-1.3232518508950779E+00
-1.3228810768762007E+00
-1.3220476689091349E+00
-1.3212147554840332E+00
-1.3207609129404614E+00
-1.3203078833771009E+00
-1.3199379835467535E+00
-1.3188596511607600E+00
-1.3187028376659953E+00
-1.3182790808723968E+00
-1.3180429069361670E+00
-1.3175154088721643E+00
-1.3173043428243931E+00
-1.3166322419855463E+00
-1.3164656015861902E+00
-1.3158598348651771E+00
-1.3152601846550660E+00
-1.3150780778949744E+00
-1.3144554512505031E+00
-1.3139919958803536E+00
-1.3139353664088336E+00
-1.3127493790747815E+00
-1.3121169680700442E+00
-1.3116942979731325E+00
-1.3111849903611541E+00
-1.3110280061412061E+00
-1.3106940727959384E+00
-1.3100514232782108E+00
-1.3096411272146067E+00
-1.3094479442784985E+00
-1.3088886777884845E+00
-1.3083800370518424E+00
-1.3075938614977742E+00
-1.3070920151191505E+00
-1.3066818437420458E+00
-1.3063854684439309E+00
-1.3060752949058636E+00
-1.3057625173037521E+00
-1.3053728047270372E+00
-1.3049288459376009E+00
-1.3046561464809447E+00
-1.3042130565433179E+00
-1.3037407642887515E+00
-1.3035691115963135E+00
-1.3031892932198230E+00
-1.3025750321572183E+00
-1.3022453876992370E+00
-1.3018798362278448E+00
-1.3016915578348447E+00
-1.3013637264980789E+00
-1.3006709358358968E+00
-1.3003880762297413E+00
-1.3001037291853941E+00
-1.2997070819533163E+00
-1.2993927770506606E+00
-1.2992060369093381E+00
-1.2982829311861022E+00
-1.2979832791221571E+00
-1.2977602034027114E+00
-1.2969398551552940E+00
-1.2964137894025143E+00
-1.2962394265299297E+00
-1.2957595940517930E+00
-1.2952468633058447E+00
-1.2949768662514518E+00
-1.2946349511017952E+00
-1.2940441335610988E+00
-1.2936347013304528E+00
-1.2929992470053915E+00
-1.2920852434533168E+00
-1.2918548635188594E+00
-1.2913881751363647E+00
-1.2909994718918549E+00
-1.2908774403073660E+00
-1.2902682431023813E+00
-1.2891482198882549E+00
-1.2888647408105025E+00
-1.2887310304556032E+00
-1.2881288324939653E+00
-1.2880577514051732E+00
-1.2875425990739995E+00
-1.2873119438783214E+00
-1.2869349338948968E+00
-1.2867902454412214E+00
-1.2865547820095316E+00
-1.2857729645204510E+00
-1.2856188472864651E+00
-1.2851178957385381E+00
-1.2848348190059427E+00
-1.2839115757139155E+00
-1.2835454684695062E+00
-1.2833280494747195E+00
-1.2826621438996928E+00
-1.2824147972143956E+00
-1.2816399411396429E+00
-1.2803896803101285E+00
-1.2800921776243892E+00
-1.2795124726299962E+00
-1.2787647700152458E+00
-1.2782907389669897E+00
-1.2774153946490669E+00
-1.2767004799666508E+00
-1.2754305415799374E+00
-1.2748468938817006E+00
-1.2734903064620482E+00
-1.2733844790719822E+00
-1.2722721316033443E+00
-1.2712019575783038E+00
-1.2644938901109759E+00
-1.1784272869565682E+00
-1.1776383245199114E+00
-1.1740926806677747E+00
-1.1698048211635257E+00
-1.1672458934994558E+00
-1.1653847234717047E+00
-1.1641847839759105E+00
-1.1633340971428068E+00
-1.1629666760570592E+00
-1.1613445801353681E+00
-1.1600331059771150E+00
-1.1580179666728472E+00
-1.1574016339050479E+00
-1.1563388662513201E+00
-1.1555693205416371E+00
-1.1552852738123431E+00
-1.1537522762008348E+00
-1.1534764755089189E+00
-1.1528598222519919E+00
-1.1516568741367239E+00
-1.1512703030825402E+00
-1.1494768408743612E+00
-1.1491088700412617E+00
-1.1482881212890943E+00
-1.1480247057280528E+00
-1.1468993465613830E+00
-1.1456484785145356E+00
-1.1454536984792185E+00
-1.1447770575988998E+00
-1.1438270730908757E+00
-1.1425061359340518E+00
-1.1417976047279061E+00
-1.1415431410011072E+00
-1.1407133896229169E+00
-1.1398027665850361E+00
-1.1387948918326247E+00
-1.1384787683004105E+00
-1.1379583010786205E+00
-1.1371129387593026E+00
-1.1361588626640506E+00
-1.1357314647240260E+00
-1.1348572099448548E+00
-1.1345399167254060E+00
-1.1332125114016562E+00
-1.1327929886688641E+00
-1.1318497997725649E+00
-1.1302155198570154E+00
-1.1301689638580519E+00
-1.1289620692864597E+00
-1.1286611291835678E+00
-1.1274305231667128E+00
-1.1265893454489555E+00
-1.1260793904932909E+00
-1.1257179424602322E+00
-1.1250174028783924E+00
-1.1244069201220444E+00
-1.1232372158768920E+00
-1.1218902469445151E+00
-1.1214113806946326E+00
-1.1212947308589469E+00
-1.1202118833650996E+00
-1.1200313229959726E+00
-1.1196359748264491E+00
-1.1189973025602693E+00
-1.1181660783334681E+00
-1.1176159049706920E+00
-1.1170048611217511E+00
-1.1161809155489808E+00
-1.1146373907463178E+00
-1.1144111515056985E+00
-1.1140277445483600E+00
-1.1132452651082883E+00
-1.1121003171006747E+00
-1.1111048544998265E+00
-1.1106267222066188E+00
-1.1098070607278165E+00
-1.1097158142031411E+00
-1.1091794626368592E+00
-1.1078059701564289E+00
-1.1074195999423164E+00
-1.1072329891316386E+00
-1.1062618352161595E+00
-1.1055505725709713E+00
-1.1047230116463129E+00
-1.1034231988952641E+00
-1.1025304616379992E+00
-1.1020260424202917E+00
-1.1015976587660743E+00
-1.1007940866890524E+00
-1.0995097035928578E+00
-1.0991835859275043E+00
-1.0985879425473628E+00
-1.0981983685505545E+00
-1.0977810836433359E+00
-1.0974087430216450E+00
-1.0962453812312243E+00
-1.0957468835795736E+00
-1.0952458655101851E+00
-1.0943235071590462E+00
-1.0941059170448939E+00
-1.0935136387919406E+00
-1.0925585575562617E+00
-1.0917752813638706E+00
-1.0912360709418554E+00
-1.0906489878125478E+00
-1.0894866172031310E+00
-1.0885483069423851E+00
-1.0879472073132650E+00
-1.0876067328263739E+00
-1.0861417860096689E+00
-1.0857405573907282E+00
-1.0847778790117335E+00
-1.0841163720832727E+00
-1.0836849793114203E+00
-1.0827063994182535E+00
-1.0822887166289294E+00
-1.0812574181091139E+00
-1.0805119165168267E+00
-1.0787735010760118E+00
-1.0785606974464836E+00
-1.0778306568659022E+00
-1.0756641068183390E+00
-1.0753383127296885E+00
-1.0743863805324241E+00
-1.0723485759783149E+00
-1.0716097469688175E+00
-1.0702154541891487E+00
-1.0674710429963132E+00
-1.0014987829988877E+00
-9.9698070433540642E-01
-9.9593930943885467E-01
-9.9563810528687424E-01
-9.9549740503952400E-01
-9.9492121220635144E-01
-9.9456594621790284E-01
-9.9384977538465169E-01
-9.9371612840282986E-01
-9.9307113621407495E-01
-9.9274396624066585E-01
-9.9188872118220661E-01
-9.9148102145810213E-01
-9.9131078395773831E-01
-9.9119701700427121E-01
-9.9084986276047138E-01
-9.9063126996810558E-01
-9.9040824396511173E-01
-9.8954799750432310E-01
-9.8938495407318205E-01
-9.8918529576682390E-01
-9.8889927176618575E-01
-9.8869136215781595E-01
-9.8851111983279594E-01
-9.8814240441108647E-01
-9.8748111053042642E-01
-9.8736243647642619E-01
-9.8690438945292924E-01
-9.8679187518885592E-01
-9.8661093528247401E-01
-9.8640806834829686E-01
-9.8610786924038563E-01
-9.8581315999782360E-01
-9.8568632169677184E-01
-9.8505007715999138E-01
-9.8484523321338946E-01
-9.8473350541183702E-01
-9.8456098065608710E-01
-9.8413094915079524E-01
-9.8405769208031346E-01
-9.8378674586422710E-01
-9.8329672596665363E-01
-9.8309463161213784E-01
-9.8287039335968318E-01
-9.8251811441663317E-01
-9.8221653202512438E-01
-9.8192534392906661E-01
-9.8166375999921041E-01
-9.8142985968956431E-01
-9.8125829758726291E-01
-9.8086870579334318E-01
-9.8058224349325140E-01
-9.8021545658082854E-01
-9.8009136182746015E-01
-9.7975448089772055E-01
-9.7964447878499816E-01
-9.7944546443002511E-01
-9.7937015027080143E-01
-9.7923459433047499E-01
-9.7900834974866513E-01
-9.7881916777132838E-01
-9.7878957598270799E-01
-9.7841218981801781E-01
-9.7831233129822093E-01
-9.7775248268693216E-01
-9.7770841346558435E-01
-9.7749529767996179E-01
-9.7729131641802780E-01
-9.7689177651226189E-01
-9.7675780595300954E-01
-9.7642571515383836E-01
-9.7618113222693192E-01
-9.7601429259337358E-01
-9.7583413392557372E-01
-9.7571706854899631E-01
-9.7526173613765421E-01
-9.7513360069969945E-01
-9.7468181929097586E-01
-9.7452268100147865E-01
-9.7434078460869755E-01
-9.7402640129607498E-01
-9.7377708075424496E-01
-9.7364979904297388E-01
-9.7340386033497206E-01
-9.7309993977307963E-01
-9.7281290374081597E-01
-9.7256170635653394E-01
-9.7230522163820332E-01
-9.7188994630355374E-01
-9.7159026551294680E-01
-9.7142060393136942E-01
-9.7101359907970330E-01
-9.7069734859634527E-01
-9.7063523488161074E-01
-9.7049632109454265E-01
-9.7016040254993952E-01
-9.6995239438868031E-01
-9.6964158235422593E-01
-9.6940602661169628E-01
-9.6887427228144996E-01
-9.6858910093526096E-01
-9.6854869727718351E-01
-9.6811394897286618E-01
-9.6771494972332073E-01
-9.6750531362171222E-01
-9.6732721792859111E-01
-9.6702157791245380E-01
-9.6692503860652435E-01
-9.6633351329310013E-01
-9.6619091982235750E-01
-9.6603080955474208E-01
-9.6567596547795898E-01
-9.6556349041839906E-01
-9.6554843064363660E-01
-9.6477412410039531E-01
-9.6399245509018427E-01
-9.6361632463813163E-01
-9.6334023884723030E-01
-9.6239426431360786E-01
-9.6202739810497395E-01
-9.6171025066355409E-01
-9.6160819316325774E-01
-9.6096517027372852E-01
-9.6071538112253940E-01
-9.6040063508558082E-01
-9.6006291333439586E-01
-9.5888179155168374E-01
-9.5630094116125630E-01
QETSC: Iter time (min)       =     1   2.26
QETSC: Iter time (max)       =     1   2.34
QETSC: Iter time (avg)       =     1   2.29
QETSC: Bin scores            =     1   0.63   0.02
QETSC: Empty bins            =     1          12
QETSC: Max,min eigs          =     1          60           2
QETSC: Max,min dists         =     1 6.521E-02 2.906E-06
QETSC: Bad bins              =     1          11          16
QETSC: Max neigs bin         =     1          27
QETSC: Max,min dist bins     =     1          16          20
QETSC: Num. of conv. evals   =     1         512
QETSC: Eigenvalue (1)        =     1  -2.2942690628638571E+00
QETSC: Eigenvalue (nocc)     =     1  -9.5630094116125630E-01
QETSC: Max differrence       =     1   2.2942690628638571E+00
QETSC: Safe iteration        =     1      F
QETSC: Finished iter         =           1
 *****************************************************************

siesta: Program's energy decomposition (eV):
siesta: Ebs     =    -19717.145141
siesta: Eions   =    104429.373288
siesta: Ena     =     25111.247127
siesta: Ekin    =     39771.655038
siesta: Enl     =     -5671.889728
siesta: DEna    =         0.000020
siesta: DUscf   =         0.000000
siesta: DUext   =         0.000000
siesta: Exc     =    -14272.759880
siesta: eta*DQ  =         0.000000
siesta: Emadel  =         0.000000
siesta: Emeta   =         0.000000
siesta: Emolmec =         0.000000
siesta: Ekinion =         0.000000
siesta: Eharris =    -60791.143089
siesta: Etot    =    -59491.120711
siesta: FreeEng =    -59491.120711
timer: Routine,Calls,Time,% =    IterSCF     1       2.592  60.45
 QETSC: Shifts, inertias         =
 -Infinity     0
    -2.300     0
    -2.226     0
    -2.152     0
    -2.077     0
    -2.003     0
    -1.929     0
    -1.855     0
    -1.781     0
    -1.706     0
    -1.632     2
    -1.558    19
    -1.484    61
    -1.410   112
    -1.335   128
    -1.261   128
    -1.187   128
    -1.113   128
    -1.039   128
    -0.965   128
    -0.890   128
    -0.816   139
    -0.742   180
    -0.668   234
    -0.594   255
    -0.519   258
    -0.445   274
    -0.371   305
    -0.297   345
    -0.223   387
    -0.148   443
    -0.074   497
     0.000   512
 QETSc: Custers,iter,crange,npcmax,trial           2   4.0129136316337147E-002          32           5
-1.6693548387096773E+00
-1.5929791271347247E+00
-1.5492319508448540E+00
-1.5086021505376341E+00
-1.4678684376976596E+00
-1.4271347248576849E+00
-1.3864919354838710E+00
-1.3447580645161290E+00
-1.3401209677419355E+00
-8.5659824046920818E-01
-8.1070023603461838E-01
-7.6907946498819812E-01
-7.2819593787335712E-01
-6.8697729988052569E-01
-6.4654377880184333E-01
-6.0414746543778797E-01
-5.6881720430107519E-01
-5.0544354838709671E-01
-4.6370967741935476E-01
-4.2122788761706548E-01
-3.8054110301768984E-01
-3.3943548387096772E-01
-2.9862903225806448E-01
-2.5791090629800306E-01
-2.1728110599078337E-01
-1.7620967741935481E-01
-1.3602150537634405E-01
-9.4802867383512512E-02
-5.4408602150537604E-02
-9.8924731182795430E-03
 2.7755575615628914E-17
 QETSC: Bins             =
              -Infinity
-1.7064516129032257E+00
-1.6540796963946867E+00
-1.5842296918767504E+00
-1.5411059907834099E+00
-1.5004554079696393E+00
-1.4597216951296648E+00
-1.4190061669829221E+00
-1.3781451612903226E+00
-1.3438306451612902E+00
-1.2434164222873900E+00
-8.4741863958229025E-01
-8.0237608182533438E-01
-7.6090275956522990E-01
-7.1995221027479084E-01
-6.7889059566478926E-01
-6.3806451612903226E-01
-5.9708141321044539E-01
-5.5614247311827947E-01
-4.9709677419354831E-01
-4.5521331945889693E-01
-4.1309053069719037E-01
-3.7231997918834542E-01
-3.3127419354838705E-01
-2.9048540706605219E-01
-2.4978494623655911E-01
-2.0906682027649767E-01
-1.6817204301075267E-01
-1.2777777777777774E-01
-8.6724014336917524E-02
-4.5505376344085989E-02
-7.9139784946236288E-03
 2.7755575615628914E-17
QETSC: Started iter            2
QETSC: Bin type used         =           7
QETSC: Buffer used           =   0.0000000000000000E+00
QETSC: EPS interval          = -Infinity,     0.000
QETSC: Inertia type          =           1
SLEPc: EPSSolve time = 0 -0.000e+00
SLEPc: EPSSolve time = 31 -0.000e+00
SLEPc: EPSSolve time = 1 6.311e-01
SLEPc: EPSSolve time = 17 6.319e-01
SLEPc: EPSSolve time = 9 6.398e-01
SLEPc: EPSSolve time = 10 6.522e-01
SLEPc: EPSSolve time = 16 6.563e-01
SLEPc: EPSSolve time = 18 6.576e-01
SLEPc: EPSSolve time = 30 6.689e-01
SLEPc: EPSSolve time = 8 6.764e-01
SLEPc: EPSSolve time = 19 6.993e-01
SLEPc: EPSSolve time = 29 7.214e-01
SLEPc: EPSSolve time = 20 7.364e-01
SLEPc: EPSSolve time = 7 7.421e-01
SLEPc: EPSSolve time = 2 8.610e-01
SLEPc: EPSSolve time = 3 8.745e-01
SLEPc: EPSSolve time = 11 8.757e-01
SLEPc: EPSSolve time = 21 8.905e-01
SLEPc: EPSSolve time = 23 8.974e-01
SLEPc: EPSSolve time = 22 9.186e-01
SLEPc: EPSSolve time = 6 9.454e-01
SLEPc: EPSSolve time = 15 9.977e-01
SLEPc: EPSSolve time = 5 1.005e+00
SLEPc: EPSSolve time = 4 1.019e+00
SLEPc: EPSSolve time = 24 1.058e+00
SLEPc: EPSSolve time = 28 1.083e+00
SLEPc: EPSSolve time = 25 1.155e+00
SLEPc: EPSSolve time = 12 1.163e+00
SLEPc: EPSSolve time = 14 1.188e+00
SLEPc: EPSSolve time = 13 1.197e+00
SLEPc: EPSSolve time = 26 1.325e+00
SLEPc: EPSSolve time = 27 1.484e+00
 QETSC: Eigenvalues         =
-1.6575748076384538E+00
-1.6412756904067951E+00
-1.6281966318966365E+00
-1.6151475122220997E+00
-1.6084039602882965E+00
-1.6034305630891368E+00
-1.5989905266652957E+00
-1.5966625351994506E+00
-1.5952286718158011E+00
-1.5873307759795345E+00
-1.5819270249368098E+00
-1.5799648059472595E+00
-1.5738984026964533E+00
-1.5697039949394276E+00
-1.5670832581590248E+00
-1.5666224247278266E+00
-1.5648000502764208E+00
-1.5595168212010790E+00
-1.5591315533066676E+00
-1.5564743479467786E+00
-1.5549190274490285E+00
-1.5509243302296636E+00
-1.5500057675664649E+00
-1.5494900223084982E+00
-1.5481087094667887E+00
-1.5422861212366121E+00
-1.5418101257553247E+00
-1.5411334377346608E+00
-1.5371296076424539E+00
-1.5354054600947487E+00
-1.5351523261155227E+00
-1.5336779874595918E+00
-1.5329312012443859E+00
-1.5320181520043321E+00
-1.5306575617839500E+00
-1.5297131691938715E+00
-1.5279654963737952E+00
-1.5274400784131168E+00
-1.5229012690925565E+00
-1.5202341510016302E+00
-1.5180393893396054E+00
-1.5170618843103187E+00
-1.5167194051062414E+00
-1.5144178401116781E+00
-1.5119129927979709E+00
-1.5108612654947540E+00
-1.5106774045485634E+00
-1.5090991057441343E+00
-1.5051579870832648E+00
-1.5042932059697702E+00
-1.5021926077373391E+00
-1.5015262296737601E+00
-1.4988497181083207E+00
-1.4969569243211265E+00
-1.4966067800043663E+00
-1.4934746131961301E+00
-1.4917098055760158E+00
-1.4894793269214259E+00
-1.4884890258247956E+00
-1.4882844286468848E+00
-1.4850099009495803E+00
-1.4828681899988705E+00
-1.4818171673074609E+00
-1.4806936192057678E+00
-1.4800820719476506E+00
-1.4787601584636332E+00
-1.4770995701760181E+00
-1.4741875403619056E+00
-1.4736665474714654E+00
-1.4717809998788984E+00
-1.4709973926702706E+00
-1.4700849301739827E+00
-1.4695167818330195E+00
-1.4679613029057186E+00
-1.4671197978428749E+00
-1.4662350329456333E+00
-1.4653115388341409E+00
-1.4646035159812671E+00
-1.4624801838506414E+00
-1.4621189150458194E+00
-1.4607465448397625E+00
-1.4589629730745826E+00
-1.4578555777580853E+00
-1.4555919844859726E+00
-1.4543232637440817E+00
-1.4530523487223970E+00
-1.4524650028864832E+00
-1.4520293806791549E+00
-1.4505959581116095E+00
-1.4482575755827183E+00
-1.4477601765591332E+00
-1.4470245521891576E+00
-1.4445991017338133E+00
-1.4430587150241958E+00
-1.4398300010516434E+00
-1.4382529534054471E+00
-1.4368804325701379E+00
-1.4360202252224172E+00
-1.4352960973755480E+00
[...]
siesta:    367   -0.634450   -0.513860   -1.503634
siesta:    368    1.130567   -0.238527    1.455098
siesta:    369   -0.469901    0.918949    0.001200
siesta:    370    1.364260   -0.295412    0.604650
siesta:    371   -1.784762    0.043232    0.676602
siesta:    372    0.386492    0.463017   -1.105297
siesta:    373    0.777301    0.820224    1.962907
siesta:    374   -0.334833   -1.282567   -0.608600
siesta:    375   -0.956574    0.648240   -0.841543
siesta:    376    0.509174    0.214457    0.777949
siesta:    377   -0.791699    0.275985   -0.470267
siesta:    378    0.612776   -0.009045   -0.758654
siesta:    379    1.220165    0.716471   -1.161151
siesta:    380    0.756563   -0.859258   -0.112560
siesta:    381   -1.444194   -0.075470    1.260912
siesta:    382    0.553663    1.175768   -0.461625
siesta:    383   -0.818472    0.046302    1.199915
siesta:    384    0.028848   -1.430432   -0.456183
siesta: ----------------------------------------
siesta:    Tot    0.138956   -0.065836    0.070294

siesta: Stress tensor (static) (eV/Ang**3):
siesta:    -0.029787   -0.001837   -0.000488
siesta:    -0.001837   -0.031920   -0.000014
siesta:    -0.000488   -0.000014   -0.030882

siesta: Cell volume =       3830.132654 Ang**3

siesta: Pressure (static):
siesta:                Solid            Molecule  Units
siesta:           0.00033613          0.00005830  Ry/Bohr**3
siesta:           0.03086275          0.00535334  eV/Ang**3
siesta:          49.44811831          8.57709112  kBar
(Free)E+ p_basis*V_orbitals  =      -60135.710895
(Free)Eharris+ p_basis*V_orbitals  =      -60135.710896
>> End of run:   7-DEC-2016   8:57:16
************************************************************************************************************************
***             WIDEN YOUR WINDOW TO 120 CHARACTERS.  Use 'enscript -r -fCourier9' to print this document            ***
************************************************************************************************************************

---------------------------------------------- PETSc Performance Summary: ----------------------------------------------

/global/homes/k/keceli/siesta-qetsc/Obj-gcc/siesta on a arch-cori-gcc named nid00223 with 128 processors, by keceli Wed Dec  7 08:57:16 2016
Using Petsc Development GIT revision: v3.7.4-1897-g257f32f  GIT Date: 2016-11-03 16:33:24 +0000

                         Max       Max/Min        Avg      Total 
Time (sec):           3.165e+01      1.00001   3.165e+01
Objects:              2.227e+03      1.23380   2.033e+03
Flops:                4.888e+09   12846.63352   2.046e+09  2.618e+11
Flops/sec:            1.545e+08   12846.59664   6.464e+07  8.274e+09
MPI Messages:         4.057e+04      5.32638   2.739e+04  3.506e+06
MPI Message Lengths:  1.510e+08      7.87748   3.640e+03  1.276e+10
MPI Reductions:       1.652e+04      1.64798

Flop counting convention: 1 flop = 1 real number operation of type (multiply/divide/add/subtract)
                            e.g., VecAXPY() for real vectors of length N --> 2N flops
                            and VecAXPY() for complex vectors of length N --> 8N flops

Summary of Stages:   ----- Time ------  ----- Flops -----  --- Messages ---  -- Message Lengths --  -- Reductions --
                        Avg     %Total     Avg     %Total   counts   %Total     Avg         %Total   counts   %Total 
 0:      Main Stage: 8.4270e-05   0.0%  0.0000e+00   0.0%  0.000e+00   0.0%  0.000e+00        0.0%  0.000e+00   0.0% 
 1:     siesta_init: 4.9464e-01   1.6%  0.0000e+00   0.0%  0.000e+00   0.0%  0.000e+00        0.0%  0.000e+00   0.0% 
 2:   siesta_forces: 1.7526e+00   5.5%  0.0000e+00   0.0%  0.000e+00   0.0%  0.000e+00        0.0%  0.000e+00   0.0% 
 3:    siesta_solve: 2.8560e-04   0.0%  0.0000e+00   0.0%  0.000e+00   0.0%  0.000e+00        0.0%  0.000e+00   0.0% 
 4:    siesta2qetsc: 6.6506e-02   0.2%  0.0000e+00   0.0%  2.546e+04   0.7%  3.112e-01        0.0%  6.900e+01   0.7% 
 5: qetsc_setup_eps: 1.6131e+00   5.1%  1.5571e+08   0.1%  2.968e+05   8.5%  6.281e+02       17.3%  2.900e+02   2.9% 
 6: qetsc_solve_eps: 2.3447e+01  74.1%  2.6169e+11  99.9%  2.127e+06  60.7%  2.963e+03       81.4%  4.709e+03  46.9% 
 7:   qetsc_eigvals: 2.4938e-04   0.0%  0.0000e+00   0.0%  0.000e+00   0.0%  0.000e+00        0.0%  0.000e+00   0.0% 
 8:   qetsc_density: 2.0635e+00   6.5%  0.0000e+00   0.0%  1.057e+06  30.2%  4.866e+01        1.3%  9.180e+03  91.5% 
10:     siesta_misc: 1.9322e+00   6.1%  0.0000e+00   0.0%  0.000e+00   0.0%  0.000e+00        0.0%  0.000e+00   0.0% 
11:     qetsc_clean: 1.2224e-02   0.0%  0.0000e+00   0.0%  0.000e+00   0.0%  0.000e+00        0.0%  0.000e+00   0.0% 
12:     siesta_move: 1.1746e-05   0.0%  0.0000e+00   0.0%  0.000e+00   0.0%  0.000e+00        0.0%  0.000e+00   0.0% 
13: siesta_analysis: 9.2465e-04   0.0%  0.0000e+00   0.0%  0.000e+00   0.0%  0.000e+00        0.0%  0.000e+00   0.0% 
14:      siesta_end: 2.6526e-01   0.8%  0.0000e+00   0.0%  0.000e+00   0.0%  0.000e+00        0.0%  0.000e+00   0.0% 

------------------------------------------------------------------------------------------------------------------------
See the 'Profiling' chapter of the users' manual for details on interpreting output.
Phase summary info:
   Count: number of times phase was executed
   Time and Flops: Max - maximum over all processors
                   Ratio - ratio of maximum to minimum over all processors
   Mess: number of messages sent
   Avg. len: average message length (bytes)
   Reduct: number of global reductions
   Global: entire computation
   Stage: stages of a computation. Set stages with PetscLogStagePush() and PetscLogStagePop().
      %T - percent time in this phase         %F - percent flops in this phase
      %M - percent messages in this phase     %L - percent message lengths in this phase
      %R - percent reductions in this phase
   Total Mflop/s: 10e-6 * (sum of flops over all processors)/(max time over all processors)
------------------------------------------------------------------------------------------------------------------------
Event                Count      Time (sec)     Flops                             --- Global ---  --- Stage ---   Total
                   Max Ratio  Max     Ratio   Max  Ratio  Mess   Avg len Reduct  %T %F %M %L %R  %T %F %M %L %R Mflop/s
------------------------------------------------------------------------------------------------------------------------

--- Event Stage 0: Main Stage


--- Event Stage 1: siesta_init


--- Event Stage 2: siesta_forces


--- Event Stage 3: siesta_solve


--- Event Stage 4: siesta2qetsc

MatConvert             2 1.0 2.2221e-04 1.6 0.00e+00 0.0 0.0e+00 0.0e+00 0.0e+00  0  0  0  0  0   0  0  0  0  0     0
MatAssemblyBegin      14 1.0 4.7061e-0218.7 0.00e+00 0.0 0.0e+00 0.0e+00 5.6e+01  0  0  0  0  1  15  0  0  0 81     0
MatAssemblyEnd        14 1.0 2.5132e-03 1.1 0.00e+00 0.0 2.5e+04 4.3e+01 1.1e+01  0  0  1  0  0   4  0100100 16     0
VecSet                 3 1.0 5.2452e-06 5.5 0.00e+00 0.0 0.0e+00 0.0e+00 0.0e+00  0  0  0  0  0   0  0  0  0  0     0

--- Event Stage 5: qetsc_setup_eps

MatCholFctrSym         1 1.0 6.4550e-02 1.1 0.00e+00 0.0 0.0e+00 0.0e+00 5.0e+00  0  0  0  0  0   4  0  0  0  2     0
MatCholFctrNum         4 1.0 9.4970e-01 1.0 0.00e+00 0.0 0.0e+00 0.0e+00 0.0e+00  3  0  0  0  0  57  0  0  0  0     0
MatCopy                3 1.0 4.6779e-02 1.1 0.00e+00 0.0 0.0e+00 0.0e+00 1.8e+01  0  0  0  0  0   3  0  0  0  6     0
MatConvert             1 1.0 1.5979e-03 5.7 0.00e+00 0.0 0.0e+00 0.0e+00 0.0e+00  0  0  0  0  0   0  0  0  0  0     0
MatScale              24 1.0 2.8596e-03 7.3 2.04e+06 5.4 0.0e+00 0.0e+00 0.0e+00  0  0  0  0  0   0100  0  0  0 54451
MatAssemblyBegin      35 1.0 3.4332e-01985.6 0.00e+00 0.0 0.0e+00 0.0e+00 8.4e+01  0  0  0  0  1   9  0  0  0 29     0
MatAssemblyEnd        35 1.0 6.3767e-03 1.2 0.00e+00 0.0 1.2e+04 2.3e+03 7.6e+01  0  0  0  0  1   0  0  4  1 26     0
MatGetRow           8096 1.0 2.3108e-02 4.4 0.00e+00 0.0 0.0e+00 0.0e+00 0.0e+00  0  0  0  0  0   1  0  0  0  0     0
MatGetSubMatrice      14 1.0 1.7608e-01 3.1 0.00e+00 0.0 2.8e+05 7.6e+03 2.8e+01  0  0  8 17  0   9  0 96 99 10     0
MatZeroEntries         3 1.0 1.5042e-03 4.5 0.00e+00 0.0 0.0e+00 0.0e+00 0.0e+00  0  0  0  0  0   0  0  0  0  0     0
MatAXPY               16 1.0 1.0702e-01 1.1 0.00e+00 0.0 6.9e+03 2.3e+03 6.4e+01  0  0  0  0  1   6  0  2  1 22     0
MatRedundantMat       14 1.0 3.4610e-01 1.1 0.00e+00 0.0 2.9e+05 7.5e+03 1.3e+02  1  0  8 17  1  21  0 98 99 44     0
MatMPIConcateSeq      14 1.0 2.7908e-01 1.8 0.00e+00 0.0 5.2e+03 2.3e+03 1.0e+02  1  0  0  0  1  12  0  2  1 35     0
VecSet                 9 1.0 3.2187e-0533.8 0.00e+00 0.0 0.0e+00 0.0e+00 0.0e+00  0  0  0  0  0   0  0  0  0  0     0
EPSSetUp               4 1.0 1.2645e+00 1.0 0.00e+00 0.0 5.1e+04 6.5e+03 2.0e+02  4  0  1  3  2  78  0 17 15 69     0
STSetUp                8 1.0 1.1943e+00 1.0 0.00e+00 0.0 6.9e+03 2.3e+03 9.1e+01  4  0  0  0  1  73  0  2  1 31     0
KSPSetUp               4 1.0 4.0531e-06 0.0 0.00e+00 0.0 0.0e+00 0.0e+00 0.0e+00  0  0  0  0  0   0  0  0  0  0     0
PCSetUp                4 1.0 1.0455e+00 1.0 0.00e+00 0.0 0.0e+00 0.0e+00 5.0e+00  3  0  0  0  0  63  0  0  0  2     0

--- Event Stage 6: qetsc_solve_eps

MatMult             6163 0.0 3.3385e+00 0.0 4.18e+09 0.0 1.5e+06 5.9e+03 0.0e+00  5 78 43 70  0   7 78 72 86  0 61269
MatSolve            2400 0.0 1.2635e+01 0.0 0.00e+00 0.0 5.8e+05 2.4e+03 1.5e+03 27  0 17 11 15  36  0 27 13 32     0
MatCholFctrNum        20 1.7 4.2814e+00 1.7 0.00e+00 0.0 0.0e+00 0.0e+00 0.0e+00 10  0  0  0  0  13  0  0  0  0     0
MatCopy               20 1.7 3.1036e-01 1.7 0.00e+00 0.0 0.0e+00 0.0e+00 8.2e+01  1  0  0  0  1   1  0  0  0  2     0
MatAssemblyBegin      40 1.7 6.4637e-011778.9 0.00e+00 0.0 0.0e+00 0.0e+00 1.1e+02  1  0  0  0  1   1  0  0  0  2     0
MatAssemblyEnd        40 1.7 1.4891e-02 1.7 0.00e+00 0.0 2.4e+04 2.3e+03 1.6e+02  0  0  1  0  2   0  0  1  1  3     0
MatGetRow          44160 1.7 1.2314e-01 7.2 0.00e+00 0.0 0.0e+00 0.0e+00 0.0e+00  0  0  0  0  0   0  0  0  0  0     0
MatZeroEntries        20 1.7 7.2629e-03 5.3 0.00e+00 0.0 0.0e+00 0.0e+00 0.0e+00  0  0  0  0  0   0  0  0  0  0     0
MatAXPY               20 1.7 4.9467e-01 1.7 0.00e+00 0.0 2.4e+04 2.3e+03 2.2e+02  1  0  1  0  2   1  0  1  1  5     0
VecDot               438 0.0 1.3441e-01 0.0 6.44e+05 0.0 0.0e+00 0.0e+00 2.1e+02  0  0  0  0  2   0  0  0  0  4   291
VecCopy              305 0.0 3.0565e-04 0.0 0.00e+00 0.0 0.0e+00 0.0e+00 0.0e+00  0  0  0  0  0   0  0  0  0  0     0
VecSet             209041742.0 2.7074e-0212617.3 0.00e+00 0.0 0.0e+00 0.0e+00 0.0e+00  0  0  0  0  0   0  0  0  0  0     0
VecScatterBegin    10963 0.0 8.8501e-02 0.0 0.00e+00 0.0 2.1e+06 4.9e+03 1.5e+03  0  0 60 81 15   0  0 98 99 32     0
VecScatterEnd       8563 0.0 9.9551e-01 0.0 0.00e+00 0.0 0.0e+00 0.0e+00 0.0e+00  1  0  0  0  0   1  0  0  0  0     0
VecSetRandom          13 0.0 3.7050e-04 0.0 0.00e+00 0.0 0.0e+00 0.0e+00 0.0e+00  0  0  0  0  0   0  0  0  0  0     0
EPSSetUp              13 1.0 3.5804e+00 1.0 0.00e+00 0.0 2.3e+04 2.2e+03 4.4e+02 11  0  1  0  4  15  0  1  0  9     0
EPSSolve              13 1.0 2.3463e+01 1.0 4.89e+09 0.0 2.1e+06 4.9e+03 4.7e+03 74100 61 81 47 100100100100100 11153
STSetUp               22 1.0 2.4353e+00 1.1 0.00e+00 0.0 1.6e+04 2.3e+03 2.0e+02  7  0  0  0  2  10  0  1  0  4     0
STApply             2400 0.0 1.3199e+01 0.0 1.63e+09 0.0 1.2e+06 4.1e+03 1.5e+03 29 29 33 37 15  39 29 54 46 32  5814
STMatSolve          2400 0.0 1.2677e+01 0.0 0.00e+00 0.0 5.8e+05 2.4e+03 1.5e+03 27  0 17 11 15  36  0 27 13 32     0
KSPSetUp              20 1.7 1.0014e-0510.5 0.00e+00 0.0 0.0e+00 0.0e+00 0.0e+00  0  0  0  0  0   0  0  0  0  0     0
KSPSolve            2400 0.0 1.2653e+01 0.0 0.00e+00 0.0 5.8e+05 2.4e+03 1.5e+03 27  0 17 11 15  36  0 27 13 32     0
PCSetUp               20 1.7 4.2815e+00 1.7 0.00e+00 0.0 0.0e+00 0.0e+00 0.0e+00 10  0  0  0  0  13  0  0  0  0     0
PCApply             2400 0.0 1.2637e+01 0.0 0.00e+00 0.0 5.8e+05 2.4e+03 1.5e+03 27  0 17 11 15  36  0 27 13 32     0
BVCreate              33 0.0 5.4851e-03 0.0 0.00e+00 0.0 0.0e+00 0.0e+00 1.5e+02  0  0  0  0  1   0  0  0  0  3     0
BVCopy               305 0.0 4.4560e-04 0.0 0.00e+00 0.0 0.0e+00 0.0e+00 0.0e+00  0  0  0  0  0   0  0  0  0  0     0
BVMultVec           3325 0.0 4.1265e-02 0.0 2.69e+08 0.0 0.0e+00 0.0e+00 0.0e+00  0  8  0  0  0   0  8  0  0  0 488360
BVMultInPlace         67 0.0 1.0130e-02 0.0 1.97e+08 0.0 0.0e+00 0.0e+00 0.0e+00  0  6  0  0  0   0  6  0  0  0 1602397
BVDotVec            3325 0.0 1.9518e+00 0.0 2.53e+09 0.0 8.7e+05 5.9e+03 2.3e+03  4 53 25 40 23   6 53 41 49 48 70526
BVOrthogonalizeV    1962 0.0 1.9979e+00 0.0 2.80e+09 0.0 8.7e+05 5.9e+03 2.3e+03  4 60 25 40 23   6 60 41 49 48 78986
BVScale             2400 0.0 2.1293e-03 0.0 1.77e+06 0.0 0.0e+00 0.0e+00 0.0e+00  0  0  0  0  0   0  0  0  0  0 65772
BVNormVec            438 0.0 2.3669e-01 0.0 2.98e+08 0.0 8.0e+04 5.9e+03 2.1e+02  0  4  2  4  2   1  4  4  5  4 45528
BVSetRandom           13 0.0 4.1914e-04 0.0 0.00e+00 0.0 0.0e+00 0.0e+00 0.0e+00  0  0  0  0  0   0  0  0  0  0     0
DSSolve               64 0.0 7.2231e-02 0.0 0.00e+00 0.0 0.0e+00 0.0e+00 0.0e+00  0  0  0  0  0   0  0  0  0  0     0
DSVectors           2740 0.0 7.3314e-04 0.0 0.00e+00 0.0 0.0e+00 0.0e+00 0.0e+00  0  0  0  0  0   0  0  0  0  0     0
DSOther               67 0.0 7.0109e-03 0.0 0.00e+00 0.0 0.0e+00 0.0e+00 0.0e+00  0  0  0  0  0   0  0  0  0  0     0

--- Event Stage 7: qetsc_eigvals


--- Event Stage 8: qetsc_density

VecCopy             6656 1.0 1.4827e-03 1.4 0.00e+00 0.0 0.0e+00 0.0e+00 0.0e+00  0  0  0  0  0   0  0  0  0  0     0
VecSet                 1 1.0 1.2159e-0512.8 0.00e+00 0.0 0.0e+00 0.0e+00 0.0e+00  0  0  0  0  0   0  0  0  0  0     0
VecScatterBegin    13312 1.0 1.3951e+00 1.0 0.00e+00 0.0 8.5e+05 1.8e+02 6.7e+03  4  0 24  1 66  67  0 80 91 73     0
VecScatterEnd       6656 1.0 3.4220e-01 1.1 0.00e+00 0.0 0.0e+00 0.0e+00 0.0e+00  1  0  0  0  0  15  0  0  0  0     0
BVCopy              6656 1.0 4.4127e-03 1.3 0.00e+00 0.0 0.0e+00 0.0e+00 0.0e+00  0  0  0  0  0   0  0  0  0  0     0

--- Event Stage 9: Unknown


--- Event Stage 10: siesta_misc


--- Event Stage 11: qetsc_clean


--- Event Stage 12: siesta_move


--- Event Stage 13: siesta_analysis


--- Event Stage 14: siesta_end

------------------------------------------------------------------------------------------------------------------------

Memory usage is given in bytes:

Object Type          Creations   Destructions     Memory  Descendants' Mem.
Reports information only for process 0.

--- Event Stage 0: Main Stage


--- Event Stage 1: siesta_init


--- Event Stage 2: siesta_forces


--- Event Stage 3: siesta_solve


--- Event Stage 4: siesta2qetsc

              Matrix     9              0            0     0.
              Vector    19              1         1648     0.
      Vector Scatter     4              0            0     0.
           Index Set     4              4        16744     0.

--- Event Stage 5: qetsc_setup_eps

              Matrix    28             12      8733230     0.
              Vector    94             50       397400     0.
      Vector Scatter    16              7         7504     0.
           Index Set    65             58       415240     0.
          EPS Solver     2              0            0     0.
  Spectral Transform     2              0            0     0.
       Krylov Solver     2              0            0     0.
      Preconditioner     2              0            0     0.
       Basis Vectors     6              3         3168     0.
         PetscRandom     1              0            0     0.
              Region     2              0            0     0.
       Direct Solver     2              0            0     0.

--- Event Stage 6: qetsc_solve_eps

              Matrix    36             36     26382096     0.
              Vector   161            161      1262960     0.
      Vector Scatter    24             24        25728     0.
           Index Set    48             48       671520     0.
       Basis Vectors    13             13        13728     0.

--- Event Stage 7: qetsc_eigvals


--- Event Stage 8: qetsc_density

              Vector    14             13        97968     0.
      Vector Scatter   417            416       448344     0.
           Index Set   833            833       729616     0.

--- Event Stage 9: Unknown


--- Event Stage 10: siesta_misc


--- Event Stage 11: qetsc_clean

              Matrix     0             25     20314798     0.
              Vector     0             63      1054920     0.
      Vector Scatter     0             14        14176     0.
           Index Set     0              7         5488     0.
          EPS Solver     0              2        30964     0.
  Spectral Transform     0              2         1632     0.
       Krylov Solver     0              2         2336     0.
      Preconditioner     0              2         1952     0.
       Basis Vectors     0              3         3168     0.
         PetscRandom     0              1          638     0.
              Region     0              2         1312     0.
       Direct Solver     0              2       109992     0.

--- Event Stage 12: siesta_move


--- Event Stage 13: siesta_analysis


--- Event Stage 14: siesta_end

              Viewer     1              0            0     0.
========================================================================================================================
Average time to get PetscTime(): 2.14577e-07
Average time for MPI_Barrier(): 1.12057e-05
Average time for zero size MPI_Send(): 2.82004e-06
#PETSc Option Table entries:
-eps_interval -2.3,0.
-eps_krylovschur_detect_zeros 0
-eps_krylovschur_partitions 32
-ioptbin 7
-ioptdensity 0
-ioptinertia 1
-ioptleft 2
-log_view
-mat_mumps_cntl_3 1e-12
-mat_mumps_icntl_13 1
-mat_mumps_icntl_23 3000
-mat_mumps_icntl_24 1
-mat_mumps_icntl_28 1
-mat_mumps_icntl_7 5
-mat_type mpisbaij
-roptbuffer 0.01
-roptdiff 0.1
-writeeigs 1
#End of PETSc Option Table entries
Compiled without FORTRAN kernels
Compiled with full precision matrices (default)
sizeof(short) 2 sizeof(int) 4 sizeof(long) 8 sizeof(void*) 8 sizeof(PetscScalar) 8 sizeof(PetscInt) 4
Configure options: --COPTFLAGS="-O3 -g" --CXXOPTFLAGS="-O3 -g" --FOPTFLAGS="-O3 -g" --download-mumps --download-metis --download-parmetis --download-ptscotch=1 --download-scalapack=1 --with-cc=cc --with-clib-autodetect=0 --with-cxx=CC --with-cxxlib-autodetect=0 --with-debugging=0 --with-fc=ftn --with-fortranlib-autodetect=0 --with-mpiexec=srun --with-ssl=0 --with-x=0
-----------------------------------------
Libraries compiled on Thu Nov 24 23:08:27 2016 on cori03 
Machine characteristics: Linux-3.12.60-52.57.1.11767.0.PTF.996988-default-x86_64-with-SuSE-12-x86_64
Using PETSc directory: /global/homes/k/keceli/petsc
Using PETSc arch: arch-cori-gcc
-----------------------------------------

Using C compiler: cc   -O3 -g  ${COPTFLAGS} ${CFLAGS}
Using Fortran compiler: ftn  -O3 -g   ${FOPTFLAGS} ${FFLAGS} 
-----------------------------------------

Using include paths: -I/global/homes/k/keceli/petsc/arch-cori-gcc/include -I/global/homes/k/keceli/petsc/include -I/global/homes/k/keceli/petsc/include -I/global/homes/k/keceli/petsc/arch-cori-gcc/include
-----------------------------------------

Using C linker: cc
Using Fortran linker: ftn
Using libraries: -Wl,-rpath,/global/homes/k/keceli/petsc/arch-cori-gcc/lib -L/global/homes/k/keceli/petsc/arch-cori-gcc/lib -lpetsc -Wl,-rpath,/global/homes/k/keceli/petsc/arch-cori-gcc/lib -L/global/homes/k/keceli/petsc/arch-cori-gcc/lib -lcmumps -ldmumps -lsmumps -lzmumps -lmumps_common -lpord -lscalapack -lparmetis -lmetis -lptesmumps -lptscotch -lptscotcherr -lscotch -lscotcherr -lrt -lm -lpthread -lz -ldl 
-----------------------------------------

