s.subSiesta: Submission time = 15s34m22h
s.subSiesta: Job name = sw512_s1_n128_c16_vesta
s.subSiesta: Number of nodes = 128
s.subSiesta: Number of cores = 2048
s.subSiesta: Number of cores/node = 16
s.subSiesta: Number of slices = 1
s.subSiesta: Mapping = ABCDET
15s34m22h
-ioptbin 7
-ioptdensity 0
-ioptinertia 1
-ioptleft 2
-ioptwrite 1
-roptbuffer 0.1
-roptdiff 0.05
# A chain of identical atoms (instead of an xyz file) can be specified with the following options 
#-N 10 # Number of atoms
#-Z 8 # Atomic number
#-c 32 # Maximum number of interactions of an atom

# A petsc matrix (binary) can be given
#-method file
#-fA '/Volumes/s/matrices/petscbinary/graphene_xxs_A'
#-fB '/Volumes/s/matrices/petscbinary/graphene_xxs_B'
#-scfthresh 1.e-3

#PETSc options
-mat_type mpisbaij
-log_view
#-mat_view
#-memory_view
#-mat_mumps_icntl_13 1 #turn off scaLAPACK for matrix inertia
#-mat_mumps_icntl_24 1 #null pivot row detection for matrix inertia
#-mat_mumps_icntl_23 0
#-mat_mumps_icntl_28 1 # serial analysis
#-mat_mumps_icntl_28 2 #parallel analysis
#-mat_mumps_icntl_29 1 #ptscotch
#-mat_mumps_icntl_29 2 #parmetis
-mat_mumps_icntl_7 5 #metis
#-malloc_info 
#-mat_view ::ascii_info 
#-mat_getrow_uppertriangular 1
#-st_type sinvert 
#-st_ksp_type preonly 
#-st_pc_type cholesky 
#-st_pc_factor_mat_solver_package mumps 

#SLEPc options

#-eps_krylovschur_partitions 1  
-eps_interval -2.3,0.
#-eps_tol  1.e-8
-eps_krylovschur_detect_zeros 0
#-eps_purify 1
SystemName liquid_D2O_512
SystemLabel D2O_512

#UseTreeTimer .true.
DM.MixingWeight 0.3
DM.NumberPulay 3

#SolutionMethod  qetsc #slepc0 for the older method
#SolutionMethod diagon
BlockSize 23
WriteDM .false.
WriteDM.NetCDF .false.
WriteDMHS.NetCDF .false.
LongOutput .false.

#MaxSCFIterations 1
##################################################
# Do not change below this line                  #
##################################################

%block SuperCell
2 0 0
0 2 0
0 0 2
%endblock SuperCell

NumberOfAtoms 192
NumberOfSpecies 2

xc.functional GGA
xc.authors PBE 
MeshCutoff 150.0 Ry

%block ChemicalSpeciesLabel
  1   8  O
  2   1  H  
%endblock ChemicalSpeciesLabel

#%block AtomicMass
#  2   2.0
#%endblock AtomicMass

%Block PAO.Basis
O    3     -0.24233
n=2   0   2   E    23.36061     3.39721
     4.50769     2.64066
     1.00000     1.00000
n=2   1   2   E     2.78334     5.14253
     6.14996     2.59356
     1.00000     1.00000
n=3   2   1   E    63.98188     0.16104
     3.54403
     1.00000
H    2      0.46527
n=1   0   2   E    99.93138     2.59932
     4.20357     1.84463
     1.00000     1.00000
n=2   1   1   E    24.56504     2.20231
     3.52816
     1.00000
%EndBlock PAO.Basis

LatticeConstant 12.418275010405969 Ang
%block LatticeVectors   
  1.0  0.0  0.0
  0.0  1.0  0.0
  0.0  0.0  1.0
%endblock LatticeVectors   

AtomicCoordinatesFormat NotScaledCartesianAng
%block AtomicCoordinatesAndAtomicSpecies < coord512.data
Siesta Version: siesta-trunk-492
Architecture  : powerpc64-unknown-linux-gnu--Xlf
Compiler flags: mpixlf90_r -I/home/keceli/scratch2/petsc/include -I/home/keceli/scratch2/petssc/arch-xl/include -I/bgsys/drivers/V1R2M4/ppc64/comm/include -I/bgsys/drivers/V1R2M4/ppc64/comm/lib/xl -I/bgsys/drivers/V1R2M4/ppc64 -I/bgsys/drivers/V1R2M4/ppc64/comm/sys/include -I/bgsys/drivers/V1R2M4/ppc64/spi/include -I/bgsys/drivers/V1R2M4/ppc64/spi/include/kernel/cnk -I/home/keceli/scratch2/slepcfork/include -I/home/keceli/scratch2/slepcfork/arch-xl/include
PP flags      : -WF,-DMPI -WF,-DFC_HAVE_ABORT -WF,-DBSC_CELLXC -WF,-DMPI_TIMING 
PARALLEL version

* Running on 2048 nodes in parallel
>> Start of run:  20-DEC-2016  22:35:24

                           ***********************       
                           *  WELCOME TO SIESTA  *       
                           ***********************       
WARNING: Siesta is reading its input from file INPUT_DEBUG

reinit: -----------------------------------------------------------------------
reinit: System Name: liquid_D2O_512
reinit: -----------------------------------------------------------------------
reinit: System Label: D2O_512                                                     
reinit: -----------------------------------------------------------------------

initatom: Reading input for the pseudopotentials and atomic orbitals ----------
Species number:   1 Atomic number:    8 Label: O
Species number:   2 Atomic number:    1 Label: H
 
Ground state valence configuration:   2s02  2p04
Reading pseudopotential information in formatted form from O.psf

Valence configuration for pseudopotential generation:
2s( 2.00) rc: 1.14
2p( 4.00) rc: 1.14
3d( 0.00) rc: 1.14
4f( 0.00) rc: 1.14
Ground state valence configuration:   1s01
Reading pseudopotential information in formatted form from H.psf

Valence configuration for pseudopotential generation:
1s( 0.60) rc: 1.25
2p( 0.00) rc: 1.25
3d( 0.00) rc: 1.25
4f( 0.00) rc: 1.25
For O, standard SIESTA heuristics set lmxkb to 3
 (one more than the basis l, including polarization orbitals).
Use PS.lmax or PS.KBprojectors blocks to override.
For H, standard SIESTA heuristics set lmxkb to 2
 (one more than the basis l, including polarization orbitals).
Use PS.lmax or PS.KBprojectors blocks to override.

<basis_specs>
===============================================================================
O                    Z=   8    Mass=  16.000        Charge=-0.24233    
Lmxo=2 Lmxkb= 3    BasisType=split      Semic=F
L=0  Nsemic=0  Cnfigmx=2
          n=1  nzeta=2  polorb=0
            splnorm:   0.15000    
               vcte:    23.361    
               rinn:    3.3972    
               qcoe:    0.0000    
               qyuk:    0.0000    
               qwid:   0.10000E-01
                rcs:    4.5077      2.6407    
            lambdas:    1.0000      1.0000    
L=1  Nsemic=0  Cnfigmx=2
          n=1  nzeta=2  polorb=0
            splnorm:   0.15000    
               vcte:    2.7833    
               rinn:    5.1425    
               qcoe:    0.0000    
               qyuk:    0.0000    
               qwid:   0.10000E-01
                rcs:    6.1500      2.5936    
            lambdas:    1.0000      1.0000    
L=2  Nsemic=0  Cnfigmx=3
          n=1  nzeta=1  polorb=0
            splnorm:   0.15000    
               vcte:    63.982    
               rinn:   0.16104    
               qcoe:    0.0000    
               qyuk:    0.0000    
               qwid:   0.10000E-01
                rcs:    3.5440    
            lambdas:    1.0000    
-------------------------------------------------------------------------------
L=0  Nkbl=1  erefs: 0.17977+309
L=1  Nkbl=1  erefs: 0.17977+309
L=2  Nkbl=1  erefs: 0.17977+309
L=3  Nkbl=1  erefs: 0.17977+309
===============================================================================
</basis_specs>

atom: Called for O                     (Z =   8)

read_vps: Pseudopotential generation method:
read_vps: ATM3      Troullier-Martins                       
Total valence charge:    6.00000

read_vps: Pseudopotential includes a core correction:
read_vps: Pseudo-core for xc-correction

xc_check: Exchange-correlation functional:
xc_check: GGA Perdew, Burke & Ernzerhof 1996
V l=0 = -2*Zval/r beyond r=  1.1278
V l=1 = -2*Zval/r beyond r=  1.1278
V l=2 = -2*Zval/r beyond r=  1.1278
V l=3 = -2*Zval/r beyond r=  1.1278
All V_l potentials equal beyond r=  1.1278
This should be close to max(r_c) in ps generation
All pots = -2*Zval/r beyond r=  1.1278

VLOCAL1: 99.0% of the norm of Vloc inside     34.126 Ry
VLOCAL1: 99.9% of the norm of Vloc inside     77.774 Ry
atom: Maximum radius for 4*pi*r*r*local-pseudopot. charge    1.37759
atom: Maximum radius for r*vlocal+2*Zval:    1.18566
GHOST: No ghost state for L =  0
GHOST: No ghost state for L =  1
GHOST: No ghost state for L =  2
GHOST: No ghost state for L =  3

KBgen: Kleinman-Bylander projectors: 
   l= 0   rc=  1.262145   el= -1.757696   Ekb=  9.253654   kbcos=  0.328369
   l= 1   rc=  1.262145   el= -0.664256   Ekb= -7.897175   kbcos= -0.393093
   l= 2   rc=  1.343567   el=  0.002031   Ekb= -1.922379   kbcos= -0.003517
   l= 3   rc=  1.394919   el=  0.003153   Ekb= -0.738278   kbcos= -0.000358

KBgen: Total number of  Kleinman-Bylander projectors:   16
atom: -------------------------------------------------------------------------

atom: SANKEY-TYPE ORBITALS:
atom: Selected multiple-zeta basis: split     

atom: basis set generated (by rescaling the valence charge)
atom: for an anion of charge  -0.2423

SPLIT: Orbitals with angular momentum L= 0

SPLIT: Basis orbitals for state 2s

   izeta = 1
                 lambda =    1.000000
                     rc =    4.574469
                 energy =   -1.754694
                kinetic =    1.490893
    potential(screened) =   -3.245588
       potential(ionic) =  -11.054474

   izeta = 2
                 rmatch =    2.639108
              splitnorm =    0.147036
                 energy =   -1.549986
                kinetic =    2.329570
    potential(screened) =   -3.879556
       potential(ionic) =  -12.328390

SPLIT: Orbitals with angular momentum L= 1

SPLIT: Basis orbitals for state 2p

   izeta = 1
                 lambda =    1.000000
                     rc =    6.174996
                 energy =   -0.657397
                kinetic =    4.283704
    potential(screened) =   -4.941101
       potential(ionic) =  -12.288569

   izeta = 2
                 rmatch =    2.639108
              splitnorm =    0.214885
                 energy =   -0.410839
                kinetic =    7.128014
    potential(screened) =   -7.538853
       potential(ionic) =  -16.113011

SPLIT: Orbitals with angular momentum L= 2

SPLIT: Basis orbitals for state 3d

   izeta = 1
                 lambda =    1.000000
                     rc =    3.562532
                 energy =    3.658838
                kinetic =    6.488135
    potential(screened) =   -2.829297
       potential(ionic) =  -10.001422
atom: Total number of Sankey-type orbitals: 13

atm_pop: Valence configuration (for local Pseudopot. screening):
 2s( 2.00)                                                            
 2p( 4.00)                                                            
 3d( 0.00)                                                            
Vna: chval, zval:    6.00000   6.00000

Vna:  Cut-off radius for the neutral-atom potential:   6.174996
comcore: Pseudo-core radius Rcore=  1.377587

atom: _________________________________________________________________________

<basis_specs>
===============================================================================
H                    Z=   1    Mass=  1.0100        Charge= 0.46527    
Lmxo=1 Lmxkb= 2    BasisType=split      Semic=F
L=0  Nsemic=0  Cnfigmx=1
          n=1  nzeta=2  polorb=0
            splnorm:   0.15000    
               vcte:    99.931    
               rinn:    2.5993    
               qcoe:    0.0000    
               qyuk:    0.0000    
               qwid:   0.10000E-01
                rcs:    4.2036      1.8446    
            lambdas:    1.0000      1.0000    
L=1  Nsemic=0  Cnfigmx=2
          n=1  nzeta=1  polorb=0
            splnorm:   0.15000    
               vcte:    24.565    
               rinn:    2.2023    
               qcoe:    0.0000    
               qyuk:    0.0000    
               qwid:   0.10000E-01
                rcs:    3.5282    
            lambdas:    1.0000    
-------------------------------------------------------------------------------
L=0  Nkbl=1  erefs: 0.17977+309
L=1  Nkbl=1  erefs: 0.17977+309
L=2  Nkbl=1  erefs: 0.17977+309
===============================================================================
</basis_specs>

atom: Called for H                     (Z =   1)

read_vps: Pseudopotential generation method:
read_vps: ATM 3.2.2 Troullier-Martins                       
Total valence charge:    0.60000

atom: Pseudopotential generated from an ionic configuration
atom: with net charge 0.40

xc_check: Exchange-correlation functional:
xc_check: GGA Perdew, Burke & Ernzerhof 1996
xc_check: WARNING: Pseudopotential generated with GGA revPBE functional
V l=0 = -2*Zval/r beyond r=  1.2343
V l=1 = -2*Zval/r beyond r=  1.2189
V l=2 = -2*Zval/r beyond r=  1.2189
All V_l potentials equal beyond r=  1.2343
This should be close to max(r_c) in ps generation
All pots = -2*Zval/r beyond r=  1.2343

VLOCAL1: 99.0% of the norm of Vloc inside     28.493 Ry
VLOCAL1: 99.9% of the norm of Vloc inside     64.935 Ry
atom: Maximum radius for 4*pi*r*r*local-pseudopot. charge    1.45251
atom: Maximum radius for r*vlocal+2*Zval:    1.21892
GHOST: No ghost state for L =  0
GHOST: No ghost state for L =  1
GHOST: No ghost state for L =  2

KBgen: Kleinman-Bylander projectors: 
   l= 0   rc=  1.364359   el= -0.835481   Ekb= -2.050473   kbcos= -0.374935
   l= 1   rc=  1.434438   el= -0.083696   Ekb= -0.439790   kbcos= -0.040392
   l= 2   rc=  1.470814   el= -0.018512   Ekb= -0.135383   kbcos= -0.004767

KBgen: Total number of  Kleinman-Bylander projectors:    9
atom: -------------------------------------------------------------------------

atom: SANKEY-TYPE ORBITALS:
atom: Selected multiple-zeta basis: split     

atom: basis set generated (by rescaling the valence charge)
atom: for a cation of charge   0.4653

SPLIT: Orbitals with angular momentum L= 0

SPLIT: Basis orbitals for state 1s

   izeta = 1
                 lambda =    1.000000
                     rc =    4.260636
                 energy =   -0.844786
                kinetic =    1.360018
    potential(screened) =   -2.204804
       potential(ionic) =   -2.290935

   izeta = 2
                 rmatch =    1.865767
              splitnorm =    0.575404
                 energy =    0.510436
                kinetic =    4.363202
    potential(screened) =   -3.852766
       potential(ionic) =   -3.849391

SPLIT: Orbitals with angular momentum L= 1

SPLIT: Basis orbitals for state 2p

   izeta = 1
                 lambda =    1.000000
                     rc =    3.576223
                 energy =    0.852340
                kinetic =    2.004908
    potential(screened) =   -1.152567
       potential(ionic) =   -1.298457
atom: Total number of Sankey-type orbitals:  5

atm_pop: Valence configuration (for local Pseudopot. screening):
 1s( 1.00)                                                            
 2p( 0.00)                                                            
Vna: chval, zval:    1.00000   1.00000

Vna:  Cut-off radius for the neutral-atom potential:   4.260636

atom: _________________________________________________________________________

prinput: Basis input ----------------------------------------------------------

PAO.BasisType split     

%block ChemicalSpeciesLabel
    1    8 O                       # Species index, atomic number, species label
    2    1 H                       # Species index, atomic number, species label
%endblock ChemicalSpeciesLabel

%block PAO.Basis                 # Define Basis set
O                     3  -0.242            # Label, l-shells, ionic net charge
 n=2   0   2                         # n, l, Nzeta 
   4.574      2.639   
   1.000      1.000   
 n=2   1   2                         # n, l, Nzeta 
   6.175      2.639   
   1.000      1.000   
 n=3   2   1                         # n, l, Nzeta 
   3.563   
   1.000   
H                     2   0.465            # Label, l-shells, ionic net charge
 n=1   0   2                         # n, l, Nzeta 
   4.261      1.866   
   1.000      1.000   
 n=2   1   1                         # n, l, Nzeta 
   3.576   
   1.000   
%endblock PAO.Basis

prinput: ----------------------------------------------------------------------

coor:   Atomic-coordinates input format  =     Cartesian coordinates
coor:                                          (in Angstroms)

siesta: Atomic coordinates (Bohr) and species
siesta:      1.17163  22.71452   5.02667  1        1
siesta:      0.86927  23.39482   6.67074  2        2
siesta:      2.04091  24.03733   4.13850  2        3
siesta:     17.83902  10.69585   0.22677  1        4
siesta:     18.93506  11.77300   1.15273  2        5
siesta:     17.46108  11.62182  -1.28501  2        6
siesta:     17.27210   2.15429  11.82969  1        7
siesta:     18.00910   0.81258  12.77455  2        8
siesta:     15.51466   2.05980  12.18874  2        9
siesta:     18.29256  18.36815  10.43129  1       10
siesta:     17.63115  17.68784   8.90061  2       11
siesta:     17.00754  17.99020  11.67851  2       12
siesta:      4.66763   5.70698   6.59515  1       13
siesta:      5.08337   5.80146   4.83770  2       14
siesta:      2.87238   5.80146   6.65184  2       15
siesta:     20.65471   8.63605  15.42017  1       16
siesta:     19.29411   7.54001  15.89260  2       17
siesta:     21.14604   8.08803  13.77611  2       18
siesta:     15.85481   6.33059   6.97309  1       19
siesta:     16.59180   7.78567   6.21720  2       20
siesta:     17.08313   5.02667   6.70853  2       21
siesta:     10.33681  13.36037   4.87550  1       22
siesta:     11.22498  11.94307   4.17630  2       23
siesta:      8.59826  12.94463   4.66763  2       24
siesta:      1.71965   9.69430  20.78700  1       25
siesta:      1.54958   9.01400  19.12404  2       26
siesta:      2.83459  11.11159  20.57913  2       27
siesta:      5.27234  13.66273  18.80278  1       28
siesta:      6.25500  13.17140  17.36659  2       29
siesta:      3.81725  14.49421  18.08469  2       30
siesta:      9.03289  23.11136   1.17163  1       31
siesta:      9.42974  24.56645   2.17319  2       32
siesta:      9.41084  21.69406   2.24877  2       33
siesta:     15.91150   6.06602  15.85481  1       34
siesta:     14.79656   7.38883  15.30679  2       35
siesta:     16.04378   4.96998  14.41862  2       36
siesta:     22.97908  15.21230  11.81079  1       37
siesta:     21.18384  15.32568  11.60292  2       38
siesta:     23.54600  14.17295  10.45019  2       39
siesta:      6.74632   7.59670   0.83148  1       40
siesta:      8.22031   6.68963   0.35905  2       41
siesta:      5.63139   7.44552  -0.60471  2       42
siesta:     11.39505  11.03600  19.01065  1       43
siesta:     12.83125  10.80924  20.06890  2       44
siesta:     12.01866  10.80924  17.32880  2       45
siesta:     13.22809  13.88949   9.37305  1       46
siesta:     11.92418  13.85170   8.12583  2       47
siesta:     12.85014  15.34458  10.39350  2       48
siesta:      1.02045   0.30236  10.28011  1       49
siesta:      1.79524   1.64406  11.18718  2       50
siesta:      1.73855  -1.19053  10.97931  2       51
siesta:      7.35104  21.59958   8.78723  1       52
siesta:      6.19830  20.73030   9.88327  2       53
siesta:      8.86282  20.61692   8.84392  2       54
siesta:     11.84859  23.05467  14.53200  1       55
siesta:     13.03912  22.41216  15.74142  2       56
siesta:     10.37460  23.45151  15.51466  2       57
siesta:      3.30702   4.36527  12.43440  1       58
siesta:      2.83459   5.68808  13.58714  2       59
siesta:      3.91173   5.23454  10.97931  2       60
siesta:     11.56513  19.02955  10.11004  1       61
siesta:     11.73520  20.23897  11.45174  2       62
siesta:     12.77455  19.55867   8.88172  2       63
siesta:     15.53355   2.39995  21.37281  1       64
siesta:     14.47531   0.98266  20.95707  2       65
siesta:     15.87371   3.21254  19.80434  2       66
siesta:      1.71965  13.64383   7.25655  1       67
siesta:      2.43775  15.30679   7.12427  2       68
siesta:      2.77790  12.62338   6.21720  2       69
siesta:      7.02978  16.21386  12.03756  1       70
siesta:      8.57936  17.02644  11.62182  2       71
siesta:      5.78256  17.51777  11.96197  2       72
siesta:     10.14783  18.65160   3.60938  1       73
siesta:     11.77300  19.33191   4.04402  2       74
siesta:     10.20453  16.95085   4.23299  2       75
siesta:      3.34482  19.97441  20.50354  1       76
siesta:      2.36216  18.76499  19.57757  2       77
siesta:      4.81880  19.04845  21.03266  2       78
siesta:     12.20764  22.18539  20.93817  1       79
siesta:     11.48954  20.73030  20.14449  2       80
siesta:     10.96042  22.69562  22.16650  2       81
siesta:     21.27832  15.30679  20.46574  1       82
siesta:     21.90193  14.75877  22.07201  2       83
siesta:     21.44840  17.12093  20.50354  2       84
siesta:     11.22498  18.31145  17.59336  1       85
siesta:      9.82658  19.12404  16.79967  2       86
siesta:     10.48798  17.30990  18.91617  2       87
siesta:     12.07535   2.68341   4.40306  1       88
siesta:     13.34147   3.77945   5.10226  2       89
siesta:     10.71475   2.72121   5.59359  2       90
siesta:     21.63737   6.93530   0.75589  1       91
siesta:     22.54444   8.06913  -0.32125  2       92
siesta:     19.93662   7.52111   0.71810  2       93
siesta:     22.54444   5.93374   5.97154  1       94
siesta:     22.67672   6.59515   4.28968  2       95
siesta:     22.07201   4.19519   5.74477  2       96
siesta:     18.97286   0.73699   1.11494  1       97
siesta:     17.61225   1.36060   0.09449  2       98
siesta:     19.80434   2.22988   1.71965  2       99
siesta:     19.31301  20.48464   5.19675  1      100
siesta:     21.07045  20.71141   5.55580  2      101
siesta:     19.10514  21.16494   3.53379  2      102
siesta:     20.23897  14.58869   2.26767  1      103
siesta:     19.82323  13.92729   3.89284  2      104
siesta:     19.67206  16.30834   2.34326  2      105
siesta:      8.63605   3.25033   8.52267  1      106
siesta:      8.27700   1.49288   8.74944  2      107
siesta:      7.10537   3.94953   7.89906  2      108
siesta:     22.33657  19.67206   0.24566  1      109
siesta:     21.52399  21.20274  -0.32125  2      110
siesta:     24.03733  20.16339   0.60471  2      111
siesta:     16.79967  19.69095  21.88304  1      112
siesta:     15.08002  20.18228  21.97752  2      113
siesta:     16.81857  17.95241  22.37437  2      114
siesta:      6.17941  20.59802  16.13827  1      115
siesta:      6.46287  22.27988  15.53355  2      116
siesta:      5.40462  20.82479  17.76343  2      117
siesta:      3.06136  15.70363   0.58582  1      118
siesta:      2.05980  17.00754  -0.18897  2      119
siesta:      3.64717  16.45952   2.13539  2      120
siesta:     22.56334   3.06136  21.22163  1      121
siesta:     22.26098   4.61093  22.07201  2      122
siesta:     20.91928   2.36216  20.93817  2      123
siesta:      3.06136   2.32436   1.22832  1      124
siesta:      2.09760   1.98421  -0.26456  2      125
siesta:      4.78101   2.15429   0.73699  2      126
siesta:      5.57469  11.88638   3.38261  1      127
siesta:      5.66918  10.26122   2.60782  2      128
siesta:      4.85660  12.94463   2.11649  2      129
siesta:     14.28634  20.80589   5.36682  1      130
siesta:     16.06268  21.03266   5.17785  2      131
siesta:     13.58714  22.46885   5.19675  2      132
siesta:     13.60603  15.93040   1.00156  1      133
siesta:     13.41706  14.17295   1.32281  2      134
siesta:     12.03756  16.66739   1.51178  2      135
siesta:     17.30990  11.77300  18.23586  1      136
siesta:     18.27366  10.75255  17.08313  2      137
siesta:     18.23586  13.32257  18.34925  2      138
siesta:     12.20764   5.55580  11.03600  1      139
siesta:     13.37927   5.85815   9.67540  2      140
siesta:     10.77144   4.78101  10.22342  2      141
siesta:      8.74944  16.34614  21.44840  1      142
siesta:      7.38883  15.25010  20.95707  2      143
siesta:     10.11004  15.23120  21.82635  2      144
siesta:     16.59180  21.63737  17.08313  1      145
siesta:     16.96975  20.74920  18.59491  2      146
siesta:     18.19807  21.82635  16.25165  2      147
siesta:     20.16339  21.80745  13.58714  1      148
siesta:     21.48619  22.37437  12.49109  2      149
siesta:     19.29411  20.54133  12.62338  2      150
siesta:     15.32568  17.53667  14.53200  1      151
siesta:     14.38082  16.66739  15.79812  2      152
siesta:     15.89260  19.04845  15.34458  2      153
siesta:     17.72564  12.41551   7.33214  1      154
siesta:     16.25165  12.94463   8.25811  2      155
siesta:     18.80278  11.65961   8.56046  2      156
siesta:      7.57780   2.68341  14.73987  1      157
siesta:      8.88172   3.53379  13.81390  2      158
siesta:      6.02823   3.23143  13.96508  2      159
siesta:     19.25632   1.88973   7.14317  1      160
siesta:     18.63271   1.96532   8.84392  2      161
siesta:     19.33191   0.13228   6.76522  2      162
siesta:     22.03422   9.05179  10.01555  1      163
siesta:     22.05311   7.65339   8.86282  2      164
siesta:     23.58379   9.92107   9.67540  2      165
siesta:      6.91640  10.99821  14.11626  1      166
siesta:      6.33059  12.32102  13.02022  2      167
siesta:      8.73054  11.07380  13.96508  2      168
siesta:     11.35726   5.08337  22.73341  1      169
siesta:     12.83125   4.10071  22.35547  2      170
siesta:     10.58247   5.36682  21.12715  2      171
siesta:     12.26433   9.92107  13.94618  1      172
siesta:     11.96197   8.63605  12.71786  2      173
siesta:     12.96353  11.30057  13.00132  2      174
siesta:     12.98242  10.03445   1.77634  1      175
siesta:     12.58558   8.33370   1.30391  2      176
siesta:     14.75877  10.18563   1.49288  2      177
siesta:      8.37149   6.36838  18.97286  1      178
siesta:      8.44708   5.31013  17.49887  2      179
siesta:      9.25966   7.88016  18.48153  2      180
siesta:      2.83459  19.25632  12.32102  1      181
siesta:      1.75745  17.83902  11.98087  2      182
siesta:      3.13695  19.19963  14.09736  2      183
siesta:      2.66451   8.14472  15.70363  1      184
siesta:      4.42196   8.61715  15.68473  2      185
siesta:      1.77634   9.73209  15.68473  2      186
siesta:      0.96376  16.06268  16.61070  1      187
siesta:     -0.41574  15.77922  17.74454  2      188
siesta:      0.26456  15.72253  14.96664  2      189
siesta:      4.23299  18.48153   5.36682  1      190
siesta:      5.89595  19.08624   4.96998  2      191
siesta:      3.15584  19.91772   5.15895  2      192
siesta:     24.63878  22.71452   5.02667  1      193
siesta:     24.33642  23.39482   6.67074  2      194
siesta:     25.50805  24.03733   4.13850  2      195
siesta:     41.30617  10.69585   0.22677  1      196
siesta:     42.40221  11.77300   1.15273  2      197
siesta:     40.92822  11.62182  -1.28501  2      198
siesta:     40.73925   2.15429  11.82969  1      199
siesta:     41.47625   0.81258  12.77455  2      200
siesta:     38.98181   2.05980  12.18874  2      201
siesta:     41.75970  18.36815  10.43129  1      202
siesta:     41.09830  17.68784   8.90061  2      203
siesta:     40.47469  17.99020  11.67851  2      204
siesta:     28.13477   5.70698   6.59515  1      205
siesta:     28.55051   5.80146   4.83770  2      206
siesta:     26.33953   5.80146   6.65184  2      207
siesta:     44.12186   8.63605  15.42017  1      208
siesta:     42.76126   7.54001  15.89260  2      209
siesta:     44.61319   8.08803  13.77611  2      210
siesta:     39.32196   6.33059   6.97309  1      211
siesta:     40.05895   7.78567   6.21720  2      212
siesta:     40.55028   5.02667   6.70853  2      213
siesta:     33.80395  13.36037   4.87550  1      214
siesta:     34.69213  11.94307   4.17630  2      215
siesta:     32.06541  12.94463   4.66763  2      216
siesta:     25.18680   9.69430  20.78700  1      217
siesta:     25.01672   9.01400  19.12404  2      218
siesta:     26.30174  11.11159  20.57913  2      219
siesta:     28.73949  13.66273  18.80278  1      220
siesta:     29.72214  13.17140  17.36659  2      221
siesta:     27.28440  14.49421  18.08469  2      222
siesta:     32.50004  23.11136   1.17163  1      223
siesta:     32.89689  24.56645   2.17319  2      224
siesta:     32.87799  21.69406   2.24877  2      225
siesta:     39.37865   6.06602  15.85481  1      226
siesta:     38.26371   7.38883  15.30679  2      227
siesta:     39.51093   4.96998  14.41862  2      228
siesta:     46.44623  15.21230  11.81079  1      229
siesta:     44.65099  15.32568  11.60292  2      230
siesta:     47.01314  14.17295  10.45019  2      231
siesta:     30.21347   7.59670   0.83148  1      232
siesta:     31.68746   6.68963   0.35905  2      233
siesta:     29.09853   7.44552  -0.60471  2      234
siesta:     34.86220  11.03600  19.01065  1      235
siesta:     36.29839  10.80924  20.06890  2      236
siesta:     35.48581  10.80924  17.32880  2      237
siesta:     36.69524  13.88949   9.37305  1      238
siesta:     35.39132  13.85170   8.12583  2      239
siesta:     36.31729  15.34458  10.39350  2      240
siesta:     24.48760   0.30236  10.28011  1      241
siesta:     25.26239   1.64406  11.18718  2      242
siesta:     25.20570  -1.19053  10.97931  2      243
siesta:     30.81819  21.59958   8.78723  1      244
siesta:     29.66545  20.73030   9.88327  2      245
siesta:     32.32997  20.61692   8.84392  2      246
siesta:     35.31574  23.05467  14.53200  1      247
siesta:     36.50626  22.41216  15.74142  2      248
siesta:     33.84175  23.45151  15.51466  2      249
siesta:     26.77417   4.36527  12.43440  1      250
siesta:     26.30174   5.68808  13.58714  2      251
siesta:     27.37888   5.23454  10.97931  2      252
siesta:     35.03228  19.02955  10.11004  1      253
siesta:     35.20235  20.23897  11.45174  2      254
siesta:     36.24170  19.55867   8.88172  2      255
siesta:     39.00070   2.39995  21.37281  1      256
siesta:     37.94246   0.98266  20.95707  2      257
siesta:     39.34085   3.21254  19.80434  2      258
siesta:     25.18680  13.64383   7.25655  1      259
siesta:     25.90490  15.30679   7.12427  2      260
siesta:     26.24505  12.62338   6.21720  2      261
siesta:     30.49693  16.21386  12.03756  1      262
siesta:     32.04651  17.02644  11.62182  2      263
siesta:     29.24971  17.51777  11.96197  2      264
siesta:     33.61498  18.65160   3.60938  1      265
siesta:     35.24015  19.33191   4.04402  2      266
siesta:     33.67167  16.95085   4.23299  2      267
siesta:     26.81196  19.97441  20.50354  1      268
siesta:     25.82931  18.76499  19.57757  2      269
siesta:     28.28595  19.04845  21.03266  2      270
siesta:     35.67478  22.18539  20.93817  1      271
siesta:     34.95669  20.73030  20.14449  2      272
siesta:     34.42756  22.69562  22.16650  2      273
siesta:     44.74547  15.30679  20.46574  1      274
siesta:     45.36908  14.75877  22.07201  2      275
siesta:     44.91555  17.12093  20.50354  2      276
siesta:     34.69213  18.31145  17.59336  1      277
siesta:     33.29373  19.12404  16.79967  2      278
siesta:     33.95513  17.30990  18.91617  2      279
siesta:     35.54250   2.68341   4.40306  1      280
siesta:     36.80862   3.77945   5.10226  2      281
siesta:     34.18190   2.72121   5.59359  2      282
siesta:     45.10452   6.93530   0.75589  1      283
siesta:     46.01159   8.06913  -0.32125  2      284
siesta:     43.40377   7.52111   0.71810  2      285
siesta:     46.01159   5.93374   5.97154  1      286
siesta:     46.14387   6.59515   4.28968  2      287
siesta:     45.53916   4.19519   5.74477  2      288
siesta:     42.44001   0.73699   1.11494  1      289
siesta:     41.07940   1.36060   0.09449  2      290
siesta:     43.27149   2.22988   1.71965  2      291
siesta:     42.78016  20.48464   5.19675  1      292
siesta:     44.53760  20.71141   5.55580  2      293
siesta:     42.57229  21.16494   3.53379  2      294
siesta:     43.70612  14.58869   2.26767  1      295
siesta:     43.29038  13.92729   3.89284  2      296
siesta:     43.13920  16.30834   2.34326  2      297
siesta:     32.10320   3.25033   8.52267  1      298
siesta:     31.74415   1.49288   8.74944  2      299
siesta:     30.57252   3.94953   7.89906  2      300
siesta:     45.80372  19.67206   0.24566  1      301
siesta:     44.99114  21.20274  -0.32125  2      302
siesta:     47.50447  20.16339   0.60471  2      303
siesta:     40.26682  19.69095  21.88304  1      304
siesta:     38.54717  20.18228  21.97752  2      305
siesta:     40.28572  17.95241  22.37437  2      306
siesta:     29.64655  20.59802  16.13827  1      307
siesta:     29.93001  22.27988  15.53355  2      308
siesta:     28.87177  20.82479  17.76343  2      309
siesta:     26.52851  15.70363   0.58582  1      310
siesta:     25.52695  17.00754  -0.18897  2      311
siesta:     27.11432  16.45952   2.13539  2      312
siesta:     46.03049   3.06136  21.22163  1      313
siesta:     45.72813   4.61093  22.07201  2      314
siesta:     44.38642   2.36216  20.93817  2      315
siesta:     26.52851   2.32436   1.22832  1      316
siesta:     25.56474   1.98421  -0.26456  2      317
siesta:     28.24816   2.15429   0.73699  2      318
siesta:     29.04184  11.88638   3.38261  1      319
siesta:     29.13633  10.26122   2.60782  2      320
siesta:     28.32375  12.94463   2.11649  2      321
siesta:     37.75348  20.80589   5.36682  1      322
siesta:     39.52983  21.03266   5.17785  2      323
siesta:     37.05428  22.46885   5.19675  2      324
siesta:     37.07318  15.93040   1.00156  1      325
siesta:     36.88421  14.17295   1.32281  2      326
siesta:     35.50471  16.66739   1.51178  2      327
siesta:     40.77705  11.77300  18.23586  1      328
siesta:     41.74081  10.75255  17.08313  2      329
siesta:     41.70301  13.32257  18.34925  2      330
siesta:     35.67478   5.55580  11.03600  1      331
siesta:     36.84641   5.85815   9.67540  2      332
siesta:     34.23859   4.78101  10.22342  2      333
siesta:     32.21658  16.34614  21.44840  1      334
siesta:     30.85598  15.25010  20.95707  2      335
siesta:     33.57719  15.23120  21.82635  2      336
siesta:     40.05895  21.63737  17.08313  1      337
siesta:     40.43690  20.74920  18.59491  2      338
siesta:     41.66522  21.82635  16.25165  2      339
siesta:     43.63053  21.80745  13.58714  1      340
siesta:     44.95334  22.37437  12.49109  2      341
siesta:     42.76126  20.54133  12.62338  2      342
siesta:     38.79283  17.53667  14.53200  1      343
siesta:     37.84797  16.66739  15.79812  2      344
siesta:     39.35975  19.04845  15.34458  2      345
siesta:     41.19279  12.41551   7.33214  1      346
siesta:     39.71880  12.94463   8.25811  2      347
siesta:     42.26993  11.65961   8.56046  2      348
siesta:     31.04495   2.68341  14.73987  1      349
siesta:     32.34886   3.53379  13.81390  2      350
siesta:     29.49538   3.23143  13.96508  2      351
siesta:     42.72346   1.88973   7.14317  1      352
siesta:     42.09986   1.96532   8.84392  2      353
siesta:     42.79905   0.13228   6.76522  2      354
siesta:     45.50136   9.05179  10.01555  1      355
siesta:     45.52026   7.65339   8.86282  2      356
siesta:     47.05094   9.92107   9.67540  2      357
siesta:     30.38355  10.99821  14.11626  1      358
siesta:     29.79773  12.32102  13.02022  2      359
siesta:     32.19769  11.07380  13.96508  2      360
siesta:     34.82441   5.08337  22.73341  1      361
siesta:     36.29839   4.10071  22.35547  2      362
siesta:     34.04962   5.36682  21.12715  2      363
siesta:     35.73148   9.92107  13.94618  1      364
siesta:     35.42912   8.63605  12.71786  2      365
siesta:     36.43067  11.30057  13.00132  2      366
siesta:     36.44957  10.03445   1.77634  1      367
siesta:     36.05273   8.33370   1.30391  2      368
siesta:     38.22591  10.18563   1.49288  2      369
siesta:     31.83864   6.36838  18.97286  1      370
siesta:     31.91423   5.31013  17.49887  2      371
siesta:     32.72681   7.88016  18.48153  2      372
siesta:     26.30174  19.25632  12.32102  1      373
siesta:     25.22459  17.83902  11.98087  2      374
siesta:     26.60409  19.19963  14.09736  2      375
siesta:     26.13166   8.14472  15.70363  1      376
siesta:     27.88911   8.61715  15.68473  2      377
siesta:     25.24349   9.73209  15.68473  2      378
siesta:     24.43091  16.06268  16.61070  1      379
siesta:     23.05141  15.77922  17.74454  2      380
siesta:     23.73171  15.72253  14.96664  2      381
siesta:     27.70014  18.48153   5.36682  1      382
siesta:     29.36310  19.08624   4.96998  2      383
siesta:     26.62299  19.91772   5.15895  2      384
siesta:      1.17163  46.18167   5.02667  1      385
siesta:      0.86927  46.86197   6.67074  2      386
siesta:      2.04091  47.50447   4.13850  2      387
siesta:     17.83902  34.16300   0.22677  1      388
siesta:     18.93506  35.24015   1.15273  2      389
siesta:     17.46108  35.08897  -1.28501  2      390
siesta:     17.27210  25.62144  11.82969  1      391
siesta:     18.00910  24.27973  12.77455  2      392
siesta:     15.51466  25.52695  12.18874  2      393
siesta:     18.29256  41.83529  10.43129  1      394
siesta:     17.63115  41.15499   8.90061  2      395
siesta:     17.00754  41.45735  11.67851  2      396
siesta:      4.66763  29.17412   6.59515  1      397
siesta:      5.08337  29.26861   4.83770  2      398
siesta:      2.87238  29.26861   6.65184  2      399
siesta:     20.65471  32.10320  15.42017  1      400
siesta:     19.29411  31.00716  15.89260  2      401
siesta:     21.14604  31.55518  13.77611  2      402
siesta:     15.85481  29.79773   6.97309  1      403
siesta:     16.59180  31.25282   6.21720  2      404
siesta:     17.08313  28.49382   6.70853  2      405
siesta:     10.33681  36.82752   4.87550  1      406
siesta:     11.22498  35.41022   4.17630  2      407
siesta:      8.59826  36.41178   4.66763  2      408
siesta:      1.71965  33.16145  20.78700  1      409
siesta:      1.54958  32.48115  19.12404  2      410
siesta:      2.83459  34.57874  20.57913  2      411
siesta:      5.27234  37.12987  18.80278  1      412
siesta:      6.25500  36.63854  17.36659  2      413
siesta:      3.81725  37.96135  18.08469  2      414
siesta:      9.03289  46.57851   1.17163  1      415
siesta:      9.42974  48.03360   2.17319  2      416
siesta:      9.41084  45.16121   2.24877  2      417
siesta:     15.91150  29.53317  15.85481  1      418
siesta:     14.79656  30.85598  15.30679  2      419
siesta:     16.04378  28.43713  14.41862  2      420
siesta:     22.97908  38.67945  11.81079  1      421
siesta:     21.18384  38.79283  11.60292  2      422
siesta:     23.54600  37.64010  10.45019  2      423
siesta:      6.74632  31.06385   0.83148  1      424
siesta:      8.22031  30.15678   0.35905  2      425
siesta:      5.63139  30.91267  -0.60471  2      426
siesta:     11.39505  34.50315  19.01065  1      427
siesta:     12.83125  34.27639  20.06890  2      428
siesta:     12.01866  34.27639  17.32880  2      429
siesta:     13.22809  37.35664   9.37305  1      430
siesta:     11.92418  37.31885   8.12583  2      431
siesta:     12.85014  38.81173  10.39350  2      432
siesta:      1.02045  23.76950  10.28011  1      433
siesta:      1.79524  25.11121  11.18718  2      434
siesta:      1.73855  22.27662  10.97931  2      435
siesta:      7.35104  45.06673   8.78723  1      436
siesta:      6.19830  44.19745   9.88327  2      437
siesta:      8.86282  44.08407   8.84392  2      438
siesta:     11.84859  46.52182  14.53200  1      439
siesta:     13.03912  45.87931  15.74142  2      440
siesta:     10.37460  46.91866  15.51466  2      441
siesta:      3.30702  27.83242  12.43440  1      442
siesta:      2.83459  29.15523  13.58714  2      443
siesta:      3.91173  28.70169  10.97931  2      444
siesta:     11.56513  42.49670  10.11004  1      445
siesta:     11.73520  43.70612  11.45174  2      446
siesta:     12.77455  43.02582   8.88172  2      447
siesta:     15.53355  25.86710  21.37281  1      448
siesta:     14.47531  24.44981  20.95707  2      449
siesta:     15.87371  26.67968  19.80434  2      450
siesta:      1.71965  37.11098   7.25655  1      451
siesta:      2.43775  38.77394   7.12427  2      452
siesta:      2.77790  36.09052   6.21720  2      453
siesta:      7.02978  39.68100  12.03756  1      454
siesta:      8.57936  40.49359  11.62182  2      455
siesta:      5.78256  40.98492  11.96197  2      456
siesta:     10.14783  42.11875   3.60938  1      457
siesta:     11.77300  42.79905   4.04402  2      458
siesta:     10.20453  40.41800   4.23299  2      459
siesta:      3.34482  43.44156  20.50354  1      460
siesta:      2.36216  42.23214  19.57757  2      461
siesta:      4.81880  42.51559  21.03266  2      462
siesta:     12.20764  45.65254  20.93817  1      463
siesta:     11.48954  44.19745  20.14449  2      464
siesta:     10.96042  46.16277  22.16650  2      465
siesta:     21.27832  38.77394  20.46574  1      466
siesta:     21.90193  38.22591  22.07201  2      467
siesta:     21.44840  40.58807  20.50354  2      468
siesta:     11.22498  41.77860  17.59336  1      469
siesta:      9.82658  42.59118  16.79967  2      470
siesta:     10.48798  40.77705  18.91617  2      471
siesta:     12.07535  26.15056   4.40306  1      472
siesta:     13.34147  27.24660   5.10226  2      473
siesta:     10.71475  26.18835   5.59359  2      474
siesta:     21.63737  30.40245   0.75589  1      475
siesta:     22.54444  31.53628  -0.32125  2      476
siesta:     19.93662  30.98826   0.71810  2      477
siesta:     22.54444  29.40089   5.97154  1      478
siesta:     22.67672  30.06229   4.28968  2      479
siesta:     22.07201  27.66234   5.74477  2      480
siesta:     18.97286  24.20414   1.11494  1      481
siesta:     17.61225  24.82775   0.09449  2      482
siesta:     19.80434  25.69703   1.71965  2      483
siesta:     19.31301  43.95179   5.19675  1      484
siesta:     21.07045  44.17855   5.55580  2      485
siesta:     19.10514  44.63209   3.53379  2      486
siesta:     20.23897  38.05584   2.26767  1      487
siesta:     19.82323  37.39444   3.89284  2      488
siesta:     19.67206  39.77549   2.34326  2      489
siesta:      8.63605  26.71748   8.52267  1      490
siesta:      8.27700  24.96003   8.74944  2      491
siesta:      7.10537  27.41668   7.89906  2      492
siesta:     22.33657  43.13920   0.24566  1      493
siesta:     21.52399  44.66988  -0.32125  2      494
siesta:     24.03733  43.63053   0.60471  2      495
siesta:     16.79967  43.15810  21.88304  1      496
siesta:     15.08002  43.64943  21.97752  2      497
siesta:     16.81857  41.41955  22.37437  2      498
siesta:      6.17941  44.06517  16.13827  1      499
siesta:      6.46287  45.74703  15.53355  2      500
siesta:      5.40462  44.29194  17.76343  2      501
siesta:      3.06136  39.17078   0.58582  1      502
siesta:      2.05980  40.47469  -0.18897  2      503
siesta:      3.64717  39.92667   2.13539  2      504
siesta:     22.56334  26.52851  21.22163  1      505
siesta:     22.26098  28.07808  22.07201  2      506
siesta:     20.91928  25.82931  20.93817  2      507
siesta:      3.06136  25.79151   1.22832  1      508
siesta:      2.09760  25.45136  -0.26456  2      509
siesta:      4.78101  25.62144   0.73699  2      510
siesta:      5.57469  35.35353   3.38261  1      511
siesta:      5.66918  33.72837   2.60782  2      512
siesta:      4.85660  36.41178   2.11649  2      513
siesta:     14.28634  44.27304   5.36682  1      514
siesta:     16.06268  44.49981   5.17785  2      515
siesta:     13.58714  45.93600   5.19675  2      516
siesta:     13.60603  39.39755   1.00156  1      517
siesta:     13.41706  37.64010   1.32281  2      518
siesta:     12.03756  40.13454   1.51178  2      519
siesta:     17.30990  35.24015  18.23586  1      520
siesta:     18.27366  34.21969  17.08313  2      521
siesta:     18.23586  36.78972  18.34925  2      522
siesta:     12.20764  29.02295  11.03600  1      523
siesta:     13.37927  29.32530   9.67540  2      524
siesta:     10.77144  28.24816  10.22342  2      525
siesta:      8.74944  39.81329  21.44840  1      526
siesta:      7.38883  38.71724  20.95707  2      527
siesta:     10.11004  38.69835  21.82635  2      528
siesta:     16.59180  45.10452  17.08313  1      529
siesta:     16.96975  44.21635  18.59491  2      530
siesta:     18.19807  45.29349  16.25165  2      531
siesta:     20.16339  45.27460  13.58714  1      532
siesta:     21.48619  45.84151  12.49109  2      533
siesta:     19.29411  44.00848  12.62338  2      534
siesta:     15.32568  41.00381  14.53200  1      535
siesta:     14.38082  40.13454  15.79812  2      536
siesta:     15.89260  42.51559  15.34458  2      537
siesta:     17.72564  35.88265   7.33214  1      538
siesta:     16.25165  36.41178   8.25811  2      539
siesta:     18.80278  35.12676   8.56046  2      540
siesta:      7.57780  26.15056  14.73987  1      541
siesta:      8.88172  27.00094  13.81390  2      542
siesta:      6.02823  26.69858  13.96508  2      543
siesta:     19.25632  25.35687   7.14317  1      544
siesta:     18.63271  25.43246   8.84392  2      545
siesta:     19.33191  23.59943   6.76522  2      546
siesta:     22.03422  32.51894  10.01555  1      547
siesta:     22.05311  31.12054   8.86282  2      548
siesta:     23.58379  33.38821   9.67540  2      549
siesta:      6.91640  34.46536  14.11626  1      550
siesta:      6.33059  35.78817  13.02022  2      551
siesta:      8.73054  34.54095  13.96508  2      552
siesta:     11.35726  28.55051  22.73341  1      553
siesta:     12.83125  27.56786  22.35547  2      554
siesta:     10.58247  28.83397  21.12715  2      555
siesta:     12.26433  33.38821  13.94618  1      556
siesta:     11.96197  32.10320  12.71786  2      557
siesta:     12.96353  34.76771  13.00132  2      558
siesta:     12.98242  33.50160   1.77634  1      559
siesta:     12.58558  31.80084   1.30391  2      560
siesta:     14.75877  33.65278   1.49288  2      561
siesta:      8.37149  29.83553  18.97286  1      562
siesta:      8.44708  28.77728  17.49887  2      563
siesta:      9.25966  31.34731  18.48153  2      564
siesta:      2.83459  42.72346  12.32102  1      565
siesta:      1.75745  41.30617  11.98087  2      566
siesta:      3.13695  42.66677  14.09736  2      567
siesta:      2.66451  31.61187  15.70363  1      568
siesta:      4.42196  32.08430  15.68473  2      569
siesta:      1.77634  33.19924  15.68473  2      570
siesta:      0.96376  39.52983  16.61070  1      571
siesta:     -0.41574  39.24637  17.74454  2      572
siesta:      0.26456  39.18968  14.96664  2      573
siesta:      4.23299  41.94868   5.36682  1      574
siesta:      5.89595  42.55339   4.96998  2      575
siesta:      3.15584  43.38487   5.15895  2      576
siesta:     24.63878  46.18167   5.02667  1      577
siesta:     24.33642  46.86197   6.67074  2      578
siesta:     25.50805  47.50447   4.13850  2      579
siesta:     41.30617  34.16300   0.22677  1      580
siesta:     42.40221  35.24015   1.15273  2      581
siesta:     40.92822  35.08897  -1.28501  2      582
siesta:     40.73925  25.62144  11.82969  1      583
siesta:     41.47625  24.27973  12.77455  2      584
siesta:     38.98181  25.52695  12.18874  2      585
siesta:     41.75970  41.83529  10.43129  1      586
siesta:     41.09830  41.15499   8.90061  2      587
siesta:     40.47469  41.45735  11.67851  2      588
siesta:     28.13477  29.17412   6.59515  1      589
siesta:     28.55051  29.26861   4.83770  2      590
siesta:     26.33953  29.26861   6.65184  2      591
siesta:     44.12186  32.10320  15.42017  1      592
siesta:     42.76126  31.00716  15.89260  2      593
siesta:     44.61319  31.55518  13.77611  2      594
siesta:     39.32196  29.79773   6.97309  1      595
siesta:     40.05895  31.25282   6.21720  2      596
siesta:     40.55028  28.49382   6.70853  2      597
siesta:     33.80395  36.82752   4.87550  1      598
siesta:     34.69213  35.41022   4.17630  2      599
siesta:     32.06541  36.41178   4.66763  2      600
siesta:     25.18680  33.16145  20.78700  1      601
siesta:     25.01672  32.48115  19.12404  2      602
siesta:     26.30174  34.57874  20.57913  2      603
siesta:     28.73949  37.12987  18.80278  1      604
siesta:     29.72214  36.63854  17.36659  2      605
siesta:     27.28440  37.96135  18.08469  2      606
siesta:     32.50004  46.57851   1.17163  1      607
siesta:     32.89689  48.03360   2.17319  2      608
siesta:     32.87799  45.16121   2.24877  2      609
siesta:     39.37865  29.53317  15.85481  1      610
siesta:     38.26371  30.85598  15.30679  2      611
siesta:     39.51093  28.43713  14.41862  2      612
siesta:     46.44623  38.67945  11.81079  1      613
siesta:     44.65099  38.79283  11.60292  2      614
siesta:     47.01314  37.64010  10.45019  2      615
siesta:     30.21347  31.06385   0.83148  1      616
siesta:     31.68746  30.15678   0.35905  2      617
siesta:     29.09853  30.91267  -0.60471  2      618
siesta:     34.86220  34.50315  19.01065  1      619
siesta:     36.29839  34.27639  20.06890  2      620
siesta:     35.48581  34.27639  17.32880  2      621
siesta:     36.69524  37.35664   9.37305  1      622
siesta:     35.39132  37.31885   8.12583  2      623
siesta:     36.31729  38.81173  10.39350  2      624
siesta:     24.48760  23.76950  10.28011  1      625
siesta:     25.26239  25.11121  11.18718  2      626
siesta:     25.20570  22.27662  10.97931  2      627
siesta:     30.81819  45.06673   8.78723  1      628
siesta:     29.66545  44.19745   9.88327  2      629
siesta:     32.32997  44.08407   8.84392  2      630
siesta:     35.31574  46.52182  14.53200  1      631
siesta:     36.50626  45.87931  15.74142  2      632
siesta:     33.84175  46.91866  15.51466  2      633
siesta:     26.77417  27.83242  12.43440  1      634
siesta:     26.30174  29.15523  13.58714  2      635
siesta:     27.37888  28.70169  10.97931  2      636
siesta:     35.03228  42.49670  10.11004  1      637
siesta:     35.20235  43.70612  11.45174  2      638
siesta:     36.24170  43.02582   8.88172  2      639
siesta:     39.00070  25.86710  21.37281  1      640
siesta:     37.94246  24.44981  20.95707  2      641
siesta:     39.34085  26.67968  19.80434  2      642
siesta:     25.18680  37.11098   7.25655  1      643
siesta:     25.90490  38.77394   7.12427  2      644
siesta:     26.24505  36.09052   6.21720  2      645
siesta:     30.49693  39.68100  12.03756  1      646
siesta:     32.04651  40.49359  11.62182  2      647
siesta:     29.24971  40.98492  11.96197  2      648
siesta:     33.61498  42.11875   3.60938  1      649
siesta:     35.24015  42.79905   4.04402  2      650
siesta:     33.67167  40.41800   4.23299  2      651
siesta:     26.81196  43.44156  20.50354  1      652
siesta:     25.82931  42.23214  19.57757  2      653
siesta:     28.28595  42.51559  21.03266  2      654
siesta:     35.67478  45.65254  20.93817  1      655
siesta:     34.95669  44.19745  20.14449  2      656
siesta:     34.42756  46.16277  22.16650  2      657
siesta:     44.74547  38.77394  20.46574  1      658
siesta:     45.36908  38.22591  22.07201  2      659
siesta:     44.91555  40.58807  20.50354  2      660
siesta:     34.69213  41.77860  17.59336  1      661
siesta:     33.29373  42.59118  16.79967  2      662
siesta:     33.95513  40.77705  18.91617  2      663
siesta:     35.54250  26.15056   4.40306  1      664
siesta:     36.80862  27.24660   5.10226  2      665
siesta:     34.18190  26.18835   5.59359  2      666
siesta:     45.10452  30.40245   0.75589  1      667
siesta:     46.01159  31.53628  -0.32125  2      668
siesta:     43.40377  30.98826   0.71810  2      669
siesta:     46.01159  29.40089   5.97154  1      670
siesta:     46.14387  30.06229   4.28968  2      671
siesta:     45.53916  27.66234   5.74477  2      672
siesta:     42.44001  24.20414   1.11494  1      673
siesta:     41.07940  24.82775   0.09449  2      674
siesta:     43.27149  25.69703   1.71965  2      675
siesta:     42.78016  43.95179   5.19675  1      676
siesta:     44.53760  44.17855   5.55580  2      677
siesta:     42.57229  44.63209   3.53379  2      678
siesta:     43.70612  38.05584   2.26767  1      679
siesta:     43.29038  37.39444   3.89284  2      680
siesta:     43.13920  39.77549   2.34326  2      681
siesta:     32.10320  26.71748   8.52267  1      682
siesta:     31.74415  24.96003   8.74944  2      683
siesta:     30.57252  27.41668   7.89906  2      684
siesta:     45.80372  43.13920   0.24566  1      685
siesta:     44.99114  44.66988  -0.32125  2      686
siesta:     47.50447  43.63053   0.60471  2      687
siesta:     40.26682  43.15810  21.88304  1      688
siesta:     38.54717  43.64943  21.97752  2      689
siesta:     40.28572  41.41955  22.37437  2      690
siesta:     29.64655  44.06517  16.13827  1      691
siesta:     29.93001  45.74703  15.53355  2      692
siesta:     28.87177  44.29194  17.76343  2      693
siesta:     26.52851  39.17078   0.58582  1      694
siesta:     25.52695  40.47469  -0.18897  2      695
siesta:     27.11432  39.92667   2.13539  2      696
siesta:     46.03049  26.52851  21.22163  1      697
siesta:     45.72813  28.07808  22.07201  2      698
siesta:     44.38642  25.82931  20.93817  2      699
siesta:     26.52851  25.79151   1.22832  1      700
siesta:     25.56474  25.45136  -0.26456  2      701
siesta:     28.24816  25.62144   0.73699  2      702
siesta:     29.04184  35.35353   3.38261  1      703
siesta:     29.13633  33.72837   2.60782  2      704
siesta:     28.32375  36.41178   2.11649  2      705
siesta:     37.75348  44.27304   5.36682  1      706
siesta:     39.52983  44.49981   5.17785  2      707
siesta:     37.05428  45.93600   5.19675  2      708
siesta:     37.07318  39.39755   1.00156  1      709
siesta:     36.88421  37.64010   1.32281  2      710
siesta:     35.50471  40.13454   1.51178  2      711
siesta:     40.77705  35.24015  18.23586  1      712
siesta:     41.74081  34.21969  17.08313  2      713
siesta:     41.70301  36.78972  18.34925  2      714
siesta:     35.67478  29.02295  11.03600  1      715
siesta:     36.84641  29.32530   9.67540  2      716
siesta:     34.23859  28.24816  10.22342  2      717
siesta:     32.21658  39.81329  21.44840  1      718
siesta:     30.85598  38.71724  20.95707  2      719
siesta:     33.57719  38.69835  21.82635  2      720
siesta:     40.05895  45.10452  17.08313  1      721
siesta:     40.43690  44.21635  18.59491  2      722
siesta:     41.66522  45.29349  16.25165  2      723
siesta:     43.63053  45.27460  13.58714  1      724
siesta:     44.95334  45.84151  12.49109  2      725
siesta:     42.76126  44.00848  12.62338  2      726
siesta:     38.79283  41.00381  14.53200  1      727
siesta:     37.84797  40.13454  15.79812  2      728
siesta:     39.35975  42.51559  15.34458  2      729
siesta:     41.19279  35.88265   7.33214  1      730
siesta:     39.71880  36.41178   8.25811  2      731
siesta:     42.26993  35.12676   8.56046  2      732
siesta:     31.04495  26.15056  14.73987  1      733
siesta:     32.34886  27.00094  13.81390  2      734
siesta:     29.49538  26.69858  13.96508  2      735
siesta:     42.72346  25.35687   7.14317  1      736
siesta:     42.09986  25.43246   8.84392  2      737
siesta:     42.79905  23.59943   6.76522  2      738
siesta:     45.50136  32.51894  10.01555  1      739
siesta:     45.52026  31.12054   8.86282  2      740
siesta:     47.05094  33.38821   9.67540  2      741
siesta:     30.38355  34.46536  14.11626  1      742
siesta:     29.79773  35.78817  13.02022  2      743
siesta:     32.19769  34.54095  13.96508  2      744
siesta:     34.82441  28.55051  22.73341  1      745
siesta:     36.29839  27.56786  22.35547  2      746
siesta:     34.04962  28.83397  21.12715  2      747
siesta:     35.73148  33.38821  13.94618  1      748
siesta:     35.42912  32.10320  12.71786  2      749
siesta:     36.43067  34.76771  13.00132  2      750
siesta:     36.44957  33.50160   1.77634  1      751
siesta:     36.05273  31.80084   1.30391  2      752
siesta:     38.22591  33.65278   1.49288  2      753
siesta:     31.83864  29.83553  18.97286  1      754
siesta:     31.91423  28.77728  17.49887  2      755
siesta:     32.72681  31.34731  18.48153  2      756
siesta:     26.30174  42.72346  12.32102  1      757
siesta:     25.22459  41.30617  11.98087  2      758
siesta:     26.60409  42.66677  14.09736  2      759
siesta:     26.13166  31.61187  15.70363  1      760
siesta:     27.88911  32.08430  15.68473  2      761
siesta:     25.24349  33.19924  15.68473  2      762
siesta:     24.43091  39.52983  16.61070  1      763
siesta:     23.05141  39.24637  17.74454  2      764
siesta:     23.73171  39.18968  14.96664  2      765
siesta:     27.70014  41.94868   5.36682  1      766
siesta:     29.36310  42.55339   4.96998  2      767
siesta:     26.62299  43.38487   5.15895  2      768
siesta:      1.17163  22.71452  28.49382  1      769
siesta:      0.86927  23.39482  30.13788  2      770
siesta:      2.04091  24.03733  27.60565  2      771
siesta:     17.83902  10.69585  23.69392  1      772
siesta:     18.93506  11.77300  24.61988  2      773
siesta:     17.46108  11.62182  22.18213  2      774
siesta:     17.27210   2.15429  35.29684  1      775
siesta:     18.00910   0.81258  36.24170  2      776
siesta:     15.51466   2.05980  35.65589  2      777
siesta:     18.29256  18.36815  33.89844  1      778
siesta:     17.63115  17.68784  32.36776  2      779
siesta:     17.00754  17.99020  35.14566  2      780
siesta:      4.66763   5.70698  30.06229  1      781
siesta:      5.08337   5.80146  28.30485  2      782
siesta:      2.87238   5.80146  30.11899  2      783
siesta:     20.65471   8.63605  38.88732  1      784
siesta:     19.29411   7.54001  39.35975  2      785
siesta:     21.14604   8.08803  37.24326  2      786
siesta:     15.85481   6.33059  30.44024  1      787
siesta:     16.59180   7.78567  29.68435  2      788
siesta:     17.08313   5.02667  30.17568  2      789
siesta:     10.33681  13.36037  28.34264  1      790
siesta:     11.22498  11.94307  27.64344  2      791
siesta:      8.59826  12.94463  28.13477  2      792
siesta:      1.71965   9.69430  44.25414  1      793
siesta:      1.54958   9.01400  42.59118  2      794
siesta:      2.83459  11.11159  44.04627  2      795
siesta:      5.27234  13.66273  42.26993  1      796
siesta:      6.25500  13.17140  40.83374  2      797
siesta:      3.81725  14.49421  41.55183  2      798
siesta:      9.03289  23.11136  24.63878  1      799
siesta:      9.42974  24.56645  25.64033  2      800
siesta:      9.41084  21.69406  25.71592  2      801
siesta:     15.91150   6.06602  39.32196  1      802
siesta:     14.79656   7.38883  38.77394  2      803
siesta:     16.04378   4.96998  37.88576  2      804
siesta:     22.97908  15.21230  35.27794  1      805
siesta:     21.18384  15.32568  35.07007  2      806
siesta:     23.54600  14.17295  33.91734  2      807
siesta:      6.74632   7.59670  24.29863  1      808
siesta:      8.22031   6.68963  23.82620  2      809
siesta:      5.63139   7.44552  22.86244  2      810
siesta:     11.39505  11.03600  42.47780  1      811
siesta:     12.83125  10.80924  43.53605  2      812
siesta:     12.01866  10.80924  40.79594  2      813
siesta:     13.22809  13.88949  32.84019  1      814
siesta:     11.92418  13.85170  31.59297  2      815
siesta:     12.85014  15.34458  33.86065  2      816
siesta:      1.02045   0.30236  33.74726  1      817
siesta:      1.79524   1.64406  34.65433  2      818
siesta:      1.73855  -1.19053  34.44646  2      819
siesta:      7.35104  21.59958  32.25438  1      820
siesta:      6.19830  20.73030  33.35042  2      821
siesta:      8.86282  20.61692  32.31107  2      822
siesta:     11.84859  23.05467  37.99915  1      823
siesta:     13.03912  22.41216  39.20857  2      824
siesta:     10.37460  23.45151  38.98181  2      825
siesta:      3.30702   4.36527  35.90155  1      826
siesta:      2.83459   5.68808  37.05428  2      827
siesta:      3.91173   5.23454  34.44646  2      828
siesta:     11.56513  19.02955  33.57719  1      829
siesta:     11.73520  20.23897  34.91889  2      830
siesta:     12.77455  19.55867  32.34886  2      831
siesta:     15.53355   2.39995  44.83996  1      832
siesta:     14.47531   0.98266  44.42422  2      833
siesta:     15.87371   3.21254  43.27149  2      834
siesta:      1.71965  13.64383  30.72370  1      835
siesta:      2.43775  15.30679  30.59142  2      836
siesta:      2.77790  12.62338  29.68435  2      837
siesta:      7.02978  16.21386  35.50471  1      838
siesta:      8.57936  17.02644  35.08897  2      839
siesta:      5.78256  17.51777  35.42912  2      840
siesta:     10.14783  18.65160  27.07653  1      841
siesta:     11.77300  19.33191  27.51116  2      842
siesta:     10.20453  16.95085  27.70014  2      843
siesta:      3.34482  19.97441  43.97068  1      844
siesta:      2.36216  18.76499  43.04472  2      845
siesta:      4.81880  19.04845  44.49981  2      846
siesta:     12.20764  22.18539  44.40532  1      847
siesta:     11.48954  20.73030  43.61164  2      848
siesta:     10.96042  22.69562  45.63364  2      849
siesta:     21.27832  15.30679  43.93289  1      850
siesta:     21.90193  14.75877  45.53916  2      851
siesta:     21.44840  17.12093  43.97068  2      852
siesta:     11.22498  18.31145  41.06051  1      853
siesta:      9.82658  19.12404  40.26682  2      854
siesta:     10.48798  17.30990  42.38331  2      855
siesta:     12.07535   2.68341  27.87021  1      856
siesta:     13.34147   3.77945  28.56941  2      857
siesta:     10.71475   2.72121  29.06074  2      858
siesta:     21.63737   6.93530  24.22304  1      859
siesta:     22.54444   8.06913  23.14589  2      860
siesta:     19.93662   7.52111  24.18524  2      861
siesta:     22.54444   5.93374  29.43868  1      862
siesta:     22.67672   6.59515  27.75683  2      863
siesta:     22.07201   4.19519  29.21192  2      864
siesta:     18.97286   0.73699  24.58209  1      865
siesta:     17.61225   1.36060  23.56163  2      866
siesta:     19.80434   2.22988  25.18680  2      867
siesta:     19.31301  20.48464  28.66390  1      868
siesta:     21.07045  20.71141  29.02295  2      869
siesta:     19.10514  21.16494  27.00094  2      870
siesta:     20.23897  14.58869  25.73482  1      871
siesta:     19.82323  13.92729  27.35999  2      872
siesta:     19.67206  16.30834  25.81041  2      873
siesta:      8.63605   3.25033  31.98982  1      874
siesta:      8.27700   1.49288  32.21658  2      875
siesta:      7.10537   3.94953  31.36621  2      876
siesta:     22.33657  19.67206  23.71281  1      877
siesta:     21.52399  21.20274  23.14589  2      878
siesta:     24.03733  20.16339  24.07186  2      879
siesta:     16.79967  19.69095  45.35019  1      880
siesta:     15.08002  20.18228  45.44467  2      881
siesta:     16.81857  17.95241  45.84151  2      882
siesta:      6.17941  20.59802  39.60542  1      883
siesta:      6.46287  22.27988  39.00070  2      884
siesta:      5.40462  20.82479  41.23058  2      885
siesta:      3.06136  15.70363  24.05296  1      886
siesta:      2.05980  17.00754  23.27818  2      887
siesta:      3.64717  16.45952  25.60254  2      888
siesta:     22.56334   3.06136  44.68878  1      889
siesta:     22.26098   4.61093  45.53916  2      890
siesta:     20.91928   2.36216  44.40532  2      891
siesta:      3.06136   2.32436  24.69547  1      892
siesta:      2.09760   1.98421  23.20259  2      893
siesta:      4.78101   2.15429  24.20414  2      894
siesta:      5.57469  11.88638  26.84976  1      895
siesta:      5.66918  10.26122  26.07497  2      896
siesta:      4.85660  12.94463  25.58364  2      897
siesta:     14.28634  20.80589  28.83397  1      898
siesta:     16.06268  21.03266  28.64500  2      899
siesta:     13.58714  22.46885  28.66390  2      900
siesta:     13.60603  15.93040  24.46870  1      901
siesta:     13.41706  14.17295  24.78996  2      902
siesta:     12.03756  16.66739  24.97893  2      903
siesta:     17.30990  11.77300  41.70301  1      904
siesta:     18.27366  10.75255  40.55028  2      905
siesta:     18.23586  13.32257  41.81640  2      906
siesta:     12.20764   5.55580  34.50315  1      907
siesta:     13.37927   5.85815  33.14255  2      908
siesta:     10.77144   4.78101  33.69057  2      909
siesta:      8.74944  16.34614  44.91555  1      910
siesta:      7.38883  15.25010  44.42422  2      911
siesta:     10.11004  15.23120  45.29349  2      912
siesta:     16.59180  21.63737  40.55028  1      913
siesta:     16.96975  20.74920  42.06206  2      914
siesta:     18.19807  21.82635  39.71880  2      915
siesta:     20.16339  21.80745  37.05428  1      916
siesta:     21.48619  22.37437  35.95824  2      917
siesta:     19.29411  20.54133  36.09052  2      918
siesta:     15.32568  17.53667  37.99915  1      919
siesta:     14.38082  16.66739  39.26526  2      920
siesta:     15.89260  19.04845  38.81173  2      921
siesta:     17.72564  12.41551  30.79929  1      922
siesta:     16.25165  12.94463  31.72525  2      923
siesta:     18.80278  11.65961  32.02761  2      924
siesta:      7.57780   2.68341  38.20702  1      925
siesta:      8.88172   3.53379  37.28105  2      926
siesta:      6.02823   3.23143  37.43223  2      927
siesta:     19.25632   1.88973  30.61032  1      928
siesta:     18.63271   1.96532  32.31107  2      929
siesta:     19.33191   0.13228  30.23237  2      930
siesta:     22.03422   9.05179  33.48270  1      931
siesta:     22.05311   7.65339  32.32997  2      932
siesta:     23.58379   9.92107  33.14255  2      933
siesta:      6.91640  10.99821  37.58341  1      934
siesta:      6.33059  12.32102  36.48737  2      935
siesta:      8.73054  11.07380  37.43223  2      936
siesta:     11.35726   5.08337  46.20056  1      937
siesta:     12.83125   4.10071  45.82262  2      938
siesta:     10.58247   5.36682  44.59429  2      939
siesta:     12.26433   9.92107  37.41333  1      940
siesta:     11.96197   8.63605  36.18501  2      941
siesta:     12.96353  11.30057  36.46847  2      942
siesta:     12.98242  10.03445  25.24349  1      943
siesta:     12.58558   8.33370  24.77106  2      944
siesta:     14.75877  10.18563  24.96003  2      945
siesta:      8.37149   6.36838  42.44001  1      946
siesta:      8.44708   5.31013  40.96602  2      947
siesta:      9.25966   7.88016  41.94868  2      948
siesta:      2.83459  19.25632  35.78817  1      949
siesta:      1.75745  17.83902  35.44802  2      950
siesta:      3.13695  19.19963  37.56451  2      951
siesta:      2.66451   8.14472  39.17078  1      952
siesta:      4.42196   8.61715  39.15188  2      953
siesta:      1.77634   9.73209  39.15188  2      954
siesta:      0.96376  16.06268  40.07785  1      955
siesta:     -0.41574  15.77922  41.21168  2      956
siesta:      0.26456  15.72253  38.43378  2      957
siesta:      4.23299  18.48153  28.83397  1      958
siesta:      5.89595  19.08624  28.43713  2      959
siesta:      3.15584  19.91772  28.62610  2      960
siesta:     24.63878  22.71452  28.49382  1      961
siesta:     24.33642  23.39482  30.13788  2      962
siesta:     25.50805  24.03733  27.60565  2      963
siesta:     41.30617  10.69585  23.69392  1      964
siesta:     42.40221  11.77300  24.61988  2      965
siesta:     40.92822  11.62182  22.18213  2      966
siesta:     40.73925   2.15429  35.29684  1      967
siesta:     41.47625   0.81258  36.24170  2      968
siesta:     38.98181   2.05980  35.65589  2      969
siesta:     41.75970  18.36815  33.89844  1      970
siesta:     41.09830  17.68784  32.36776  2      971
siesta:     40.47469  17.99020  35.14566  2      972
siesta:     28.13477   5.70698  30.06229  1      973
siesta:     28.55051   5.80146  28.30485  2      974
siesta:     26.33953   5.80146  30.11899  2      975
siesta:     44.12186   8.63605  38.88732  1      976
siesta:     42.76126   7.54001  39.35975  2      977
siesta:     44.61319   8.08803  37.24326  2      978
siesta:     39.32196   6.33059  30.44024  1      979
siesta:     40.05895   7.78567  29.68435  2      980
siesta:     40.55028   5.02667  30.17568  2      981
siesta:     33.80395  13.36037  28.34264  1      982
siesta:     34.69213  11.94307  27.64344  2      983
siesta:     32.06541  12.94463  28.13477  2      984
siesta:     25.18680   9.69430  44.25414  1      985
siesta:     25.01672   9.01400  42.59118  2      986
siesta:     26.30174  11.11159  44.04627  2      987
siesta:     28.73949  13.66273  42.26993  1      988
siesta:     29.72214  13.17140  40.83374  2      989
siesta:     27.28440  14.49421  41.55183  2      990
siesta:     32.50004  23.11136  24.63878  1      991
siesta:     32.89689  24.56645  25.64033  2      992
siesta:     32.87799  21.69406  25.71592  2      993
siesta:     39.37865   6.06602  39.32196  1      994
siesta:     38.26371   7.38883  38.77394  2      995
siesta:     39.51093   4.96998  37.88576  2      996
siesta:     46.44623  15.21230  35.27794  1      997
siesta:     44.65099  15.32568  35.07007  2      998
siesta:     47.01314  14.17295  33.91734  2      999
siesta:     30.21347   7.59670  24.29863  1     1000
siesta:     31.68746   6.68963  23.82620  2     1001
siesta:     29.09853   7.44552  22.86244  2     1002
siesta:     34.86220  11.03600  42.47780  1     1003
siesta:     36.29839  10.80924  43.53605  2     1004
siesta:     35.48581  10.80924  40.79594  2     1005
siesta:     36.69524  13.88949  32.84019  1     1006
siesta:     35.39132  13.85170  31.59297  2     1007
siesta:     36.31729  15.34458  33.86065  2     1008
siesta:     24.48760   0.30236  33.74726  1     1009
siesta:     25.26239   1.64406  34.65433  2     1010
siesta:     25.20570  -1.19053  34.44646  2     1011
siesta:     30.81819  21.59958  32.25438  1     1012
siesta:     29.66545  20.73030  33.35042  2     1013
siesta:     32.32997  20.61692  32.31107  2     1014
siesta:     35.31574  23.05467  37.99915  1     1015
siesta:     36.50626  22.41216  39.20857  2     1016
siesta:     33.84175  23.45151  38.98181  2     1017
siesta:     26.77417   4.36527  35.90155  1     1018
siesta:     26.30174   5.68808  37.05428  2     1019
siesta:     27.37888   5.23454  34.44646  2     1020
siesta:     35.03228  19.02955  33.57719  1     1021
siesta:     35.20235  20.23897  34.91889  2     1022
siesta:     36.24170  19.55867  32.34886  2     1023
siesta:     39.00070   2.39995  44.83996  1     1024
siesta:     37.94246   0.98266  44.42422  2     1025
siesta:     39.34085   3.21254  43.27149  2     1026
siesta:     25.18680  13.64383  30.72370  1     1027
siesta:     25.90490  15.30679  30.59142  2     1028
siesta:     26.24505  12.62338  29.68435  2     1029
siesta:     30.49693  16.21386  35.50471  1     1030
siesta:     32.04651  17.02644  35.08897  2     1031
siesta:     29.24971  17.51777  35.42912  2     1032
siesta:     33.61498  18.65160  27.07653  1     1033
siesta:     35.24015  19.33191  27.51116  2     1034
siesta:     33.67167  16.95085  27.70014  2     1035
siesta:     26.81196  19.97441  43.97068  1     1036
siesta:     25.82931  18.76499  43.04472  2     1037
siesta:     28.28595  19.04845  44.49981  2     1038
siesta:     35.67478  22.18539  44.40532  1     1039
siesta:     34.95669  20.73030  43.61164  2     1040
siesta:     34.42756  22.69562  45.63364  2     1041
siesta:     44.74547  15.30679  43.93289  1     1042
siesta:     45.36908  14.75877  45.53916  2     1043
siesta:     44.91555  17.12093  43.97068  2     1044
siesta:     34.69213  18.31145  41.06051  1     1045
siesta:     33.29373  19.12404  40.26682  2     1046
siesta:     33.95513  17.30990  42.38331  2     1047
siesta:     35.54250   2.68341  27.87021  1     1048
siesta:     36.80862   3.77945  28.56941  2     1049
siesta:     34.18190   2.72121  29.06074  2     1050
siesta:     45.10452   6.93530  24.22304  1     1051
siesta:     46.01159   8.06913  23.14589  2     1052
siesta:     43.40377   7.52111  24.18524  2     1053
siesta:     46.01159   5.93374  29.43868  1     1054
siesta:     46.14387   6.59515  27.75683  2     1055
siesta:     45.53916   4.19519  29.21192  2     1056
siesta:     42.44001   0.73699  24.58209  1     1057
siesta:     41.07940   1.36060  23.56163  2     1058
siesta:     43.27149   2.22988  25.18680  2     1059
siesta:     42.78016  20.48464  28.66390  1     1060
siesta:     44.53760  20.71141  29.02295  2     1061
siesta:     42.57229  21.16494  27.00094  2     1062
siesta:     43.70612  14.58869  25.73482  1     1063
siesta:     43.29038  13.92729  27.35999  2     1064
siesta:     43.13920  16.30834  25.81041  2     1065
siesta:     32.10320   3.25033  31.98982  1     1066
siesta:     31.74415   1.49288  32.21658  2     1067
siesta:     30.57252   3.94953  31.36621  2     1068
siesta:     45.80372  19.67206  23.71281  1     1069
siesta:     44.99114  21.20274  23.14589  2     1070
siesta:     47.50447  20.16339  24.07186  2     1071
siesta:     40.26682  19.69095  45.35019  1     1072
siesta:     38.54717  20.18228  45.44467  2     1073
siesta:     40.28572  17.95241  45.84151  2     1074
siesta:     29.64655  20.59802  39.60542  1     1075
siesta:     29.93001  22.27988  39.00070  2     1076
siesta:     28.87177  20.82479  41.23058  2     1077
siesta:     26.52851  15.70363  24.05296  1     1078
siesta:     25.52695  17.00754  23.27818  2     1079
siesta:     27.11432  16.45952  25.60254  2     1080
siesta:     46.03049   3.06136  44.68878  1     1081
siesta:     45.72813   4.61093  45.53916  2     1082
siesta:     44.38642   2.36216  44.40532  2     1083
siesta:     26.52851   2.32436  24.69547  1     1084
siesta:     25.56474   1.98421  23.20259  2     1085
siesta:     28.24816   2.15429  24.20414  2     1086
siesta:     29.04184  11.88638  26.84976  1     1087
siesta:     29.13633  10.26122  26.07497  2     1088
siesta:     28.32375  12.94463  25.58364  2     1089
siesta:     37.75348  20.80589  28.83397  1     1090
siesta:     39.52983  21.03266  28.64500  2     1091
siesta:     37.05428  22.46885  28.66390  2     1092
siesta:     37.07318  15.93040  24.46870  1     1093
siesta:     36.88421  14.17295  24.78996  2     1094
siesta:     35.50471  16.66739  24.97893  2     1095
siesta:     40.77705  11.77300  41.70301  1     1096
siesta:     41.74081  10.75255  40.55028  2     1097
siesta:     41.70301  13.32257  41.81640  2     1098
siesta:     35.67478   5.55580  34.50315  1     1099
siesta:     36.84641   5.85815  33.14255  2     1100
siesta:     34.23859   4.78101  33.69057  2     1101
siesta:     32.21658  16.34614  44.91555  1     1102
siesta:     30.85598  15.25010  44.42422  2     1103
siesta:     33.57719  15.23120  45.29349  2     1104
siesta:     40.05895  21.63737  40.55028  1     1105
siesta:     40.43690  20.74920  42.06206  2     1106
siesta:     41.66522  21.82635  39.71880  2     1107
siesta:     43.63053  21.80745  37.05428  1     1108
siesta:     44.95334  22.37437  35.95824  2     1109
siesta:     42.76126  20.54133  36.09052  2     1110
siesta:     38.79283  17.53667  37.99915  1     1111
siesta:     37.84797  16.66739  39.26526  2     1112
siesta:     39.35975  19.04845  38.81173  2     1113
siesta:     41.19279  12.41551  30.79929  1     1114
siesta:     39.71880  12.94463  31.72525  2     1115
siesta:     42.26993  11.65961  32.02761  2     1116
siesta:     31.04495   2.68341  38.20702  1     1117
siesta:     32.34886   3.53379  37.28105  2     1118
siesta:     29.49538   3.23143  37.43223  2     1119
siesta:     42.72346   1.88973  30.61032  1     1120
siesta:     42.09986   1.96532  32.31107  2     1121
siesta:     42.79905   0.13228  30.23237  2     1122
siesta:     45.50136   9.05179  33.48270  1     1123
siesta:     45.52026   7.65339  32.32997  2     1124
siesta:     47.05094   9.92107  33.14255  2     1125
siesta:     30.38355  10.99821  37.58341  1     1126
siesta:     29.79773  12.32102  36.48737  2     1127
siesta:     32.19769  11.07380  37.43223  2     1128
siesta:     34.82441   5.08337  46.20056  1     1129
siesta:     36.29839   4.10071  45.82262  2     1130
siesta:     34.04962   5.36682  44.59429  2     1131
siesta:     35.73148   9.92107  37.41333  1     1132
siesta:     35.42912   8.63605  36.18501  2     1133
siesta:     36.43067  11.30057  36.46847  2     1134
siesta:     36.44957  10.03445  25.24349  1     1135
siesta:     36.05273   8.33370  24.77106  2     1136
siesta:     38.22591  10.18563  24.96003  2     1137
siesta:     31.83864   6.36838  42.44001  1     1138
siesta:     31.91423   5.31013  40.96602  2     1139
siesta:     32.72681   7.88016  41.94868  2     1140
siesta:     26.30174  19.25632  35.78817  1     1141
siesta:     25.22459  17.83902  35.44802  2     1142
siesta:     26.60409  19.19963  37.56451  2     1143
siesta:     26.13166   8.14472  39.17078  1     1144
siesta:     27.88911   8.61715  39.15188  2     1145
siesta:     25.24349   9.73209  39.15188  2     1146
siesta:     24.43091  16.06268  40.07785  1     1147
siesta:     23.05141  15.77922  41.21168  2     1148
siesta:     23.73171  15.72253  38.43378  2     1149
siesta:     27.70014  18.48153  28.83397  1     1150
siesta:     29.36310  19.08624  28.43713  2     1151
siesta:     26.62299  19.91772  28.62610  2     1152
siesta:      1.17163  46.18167  28.49382  1     1153
siesta:      0.86927  46.86197  30.13788  2     1154
siesta:      2.04091  47.50447  27.60565  2     1155
siesta:     17.83902  34.16300  23.69392  1     1156
siesta:     18.93506  35.24015  24.61988  2     1157
siesta:     17.46108  35.08897  22.18213  2     1158
siesta:     17.27210  25.62144  35.29684  1     1159
siesta:     18.00910  24.27973  36.24170  2     1160
siesta:     15.51466  25.52695  35.65589  2     1161
siesta:     18.29256  41.83529  33.89844  1     1162
siesta:     17.63115  41.15499  32.36776  2     1163
siesta:     17.00754  41.45735  35.14566  2     1164
siesta:      4.66763  29.17412  30.06229  1     1165
siesta:      5.08337  29.26861  28.30485  2     1166
siesta:      2.87238  29.26861  30.11899  2     1167
siesta:     20.65471  32.10320  38.88732  1     1168
siesta:     19.29411  31.00716  39.35975  2     1169
siesta:     21.14604  31.55518  37.24326  2     1170
siesta:     15.85481  29.79773  30.44024  1     1171
siesta:     16.59180  31.25282  29.68435  2     1172
siesta:     17.08313  28.49382  30.17568  2     1173
siesta:     10.33681  36.82752  28.34264  1     1174
siesta:     11.22498  35.41022  27.64344  2     1175
siesta:      8.59826  36.41178  28.13477  2     1176
siesta:      1.71965  33.16145  44.25414  1     1177
siesta:      1.54958  32.48115  42.59118  2     1178
siesta:      2.83459  34.57874  44.04627  2     1179
siesta:      5.27234  37.12987  42.26993  1     1180
siesta:      6.25500  36.63854  40.83374  2     1181
siesta:      3.81725  37.96135  41.55183  2     1182
siesta:      9.03289  46.57851  24.63878  1     1183
siesta:      9.42974  48.03360  25.64033  2     1184
siesta:      9.41084  45.16121  25.71592  2     1185
siesta:     15.91150  29.53317  39.32196  1     1186
siesta:     14.79656  30.85598  38.77394  2     1187
siesta:     16.04378  28.43713  37.88576  2     1188
siesta:     22.97908  38.67945  35.27794  1     1189
siesta:     21.18384  38.79283  35.07007  2     1190
siesta:     23.54600  37.64010  33.91734  2     1191
siesta:      6.74632  31.06385  24.29863  1     1192
siesta:      8.22031  30.15678  23.82620  2     1193
siesta:      5.63139  30.91267  22.86244  2     1194
siesta:     11.39505  34.50315  42.47780  1     1195
siesta:     12.83125  34.27639  43.53605  2     1196
siesta:     12.01866  34.27639  40.79594  2     1197
siesta:     13.22809  37.35664  32.84019  1     1198
siesta:     11.92418  37.31885  31.59297  2     1199
siesta:     12.85014  38.81173  33.86065  2     1200
siesta:      1.02045  23.76950  33.74726  1     1201
siesta:      1.79524  25.11121  34.65433  2     1202
siesta:      1.73855  22.27662  34.44646  2     1203
siesta:      7.35104  45.06673  32.25438  1     1204
siesta:      6.19830  44.19745  33.35042  2     1205
siesta:      8.86282  44.08407  32.31107  2     1206
siesta:     11.84859  46.52182  37.99915  1     1207
siesta:     13.03912  45.87931  39.20857  2     1208
siesta:     10.37460  46.91866  38.98181  2     1209
siesta:      3.30702  27.83242  35.90155  1     1210
[...]
siesta:   1362    0.234717   -0.066749   -1.255748
siesta:   1363   -1.130625   -0.476428    0.337172
siesta:   1364    0.259424    1.221408   -0.323452
siesta:   1365    0.822661   -0.932510    0.022489
siesta:   1366    0.934199    1.493648    1.227004
siesta:   1367    0.690906   -0.878582   -0.721026
siesta:   1368   -1.667590   -0.518787   -0.358158
siesta:   1369   -0.634330   -0.299261    1.485884
siesta:   1370    0.032657   -0.673341   -0.845819
siesta:   1371    0.600320    0.652208   -0.097656
siesta:   1372   -0.197495   -0.177958    1.243567
siesta:   1373    0.621006   -0.508343   -0.894222
siesta:   1374   -0.708797    0.478935   -0.501403
siesta:   1375   -0.880569    0.172066   -0.663361
siesta:   1376    0.578589    0.788575    0.140009
siesta:   1377   -0.172079   -0.809305    0.300729
siesta:   1378    0.569678   -0.207329    1.165904
siesta:   1379   -0.554434    0.678852   -0.204663
siesta:   1380    0.195516   -0.529071   -0.691920
siesta:   1381    0.212317    0.458275    1.000806
siesta:   1382   -0.910771    0.430556   -0.236367
siesta:   1383    0.615777   -0.782430   -1.207931
siesta:   1384   -1.340467    0.426505    0.852547
siesta:   1385    1.364723   -0.674317   -0.274531
siesta:   1386   -0.273942   -0.014242   -0.422770
siesta:   1387   -1.398789    0.170896    0.342349
siesta:   1388    0.817030   -0.162284    0.616967
siesta:   1389    0.482662   -0.028507   -0.881634
siesta:   1390    1.052437   -0.628658    1.151269
siesta:   1391   -1.027195   -0.223831   -1.269645
siesta:   1392   -0.082426    0.773154    0.296240
siesta:   1393   -1.600293   -0.252140   -1.225601
siesta:   1394    0.512955    1.410460    0.766445
siesta:   1395    0.731891   -1.434812    0.509975
siesta:   1396   -0.684942    1.465902   -0.570530
siesta:   1397   -0.600823   -0.194923    0.277862
siesta:   1398    1.071995   -0.869937    0.155734
siesta:   1399    0.140922    0.015469   -1.087948
siesta:   1400    0.690573   -0.319030    0.593042
siesta:   1401   -0.481042    0.253668    0.172838
siesta:   1402    0.246934   -1.405448   -0.175110
siesta:   1403   -0.701539    1.093605    0.961449
siesta:   1404    0.404801    0.488171   -0.930153
siesta:   1405   -0.744503   -0.763704    0.157532
siesta:   1406    0.210287    0.657209    1.123419
siesta:   1407    0.947633    0.311450   -1.129123
siesta:   1408    0.495615    0.848255    1.008703
siesta:   1409   -0.796819   -1.242767   -0.469509
siesta:   1410    0.294129    0.552710   -1.090344
siesta:   1411   -1.180346   -0.064045    1.182387
siesta:   1412    0.472903    0.737706   -0.296004
siesta:   1413    0.892178   -0.673094   -0.887642
siesta:   1414    0.089087   -1.621797    0.190605
siesta:   1415    0.964286    0.338886   -0.274791
siesta:   1416   -0.933595    0.702724    0.061930
siesta:   1417   -1.371565    0.583111   -0.560124
siesta:   1418    1.295474    0.295976    0.482447
siesta:   1419   -0.199047   -1.219973    0.541588
siesta:   1420    0.173799    0.925919    0.245964
siesta:   1421   -0.357809   -0.501674   -0.664829
siesta:   1422    0.513114   -0.452289    0.376139
siesta:   1423    1.183897    0.608803   -0.155730
siesta:   1424   -0.197937   -1.075638   -1.110674
siesta:   1425   -0.813327    0.439335    1.118397
siesta:   1426   -0.597644   -0.003832   -1.333601
siesta:   1427    0.278586   -0.350505    0.979382
siesta:   1428   -0.185533    0.613024    0.710108
siesta:   1429    1.721794    0.247167   -0.327765
siesta:   1430   -1.123988    0.313134   -0.626179
siesta:   1431   -0.979269   -0.706413    0.800210
siesta:   1432    0.398493   -1.136311   -0.899558
siesta:   1433    0.473419    0.746693    0.250358
siesta:   1434   -0.727761    0.391476    1.127531
siesta:   1435    0.629404   -1.054750    1.051912
siesta:   1436    0.818468    1.078631   -0.713109
siesta:   1437   -1.229906    0.823064   -0.265747
siesta:   1438    0.691924    0.275966    0.911356
siesta:   1439   -0.109577    0.456568   -1.198458
siesta:   1440   -0.530498   -0.848582    0.288681
siesta:   1441    0.883054   -1.105992    0.942073
siesta:   1442   -0.993212    0.346163   -0.848756
siesta:   1443    0.348521    0.367746    0.246053
siesta:   1444   -0.776521   -0.770772    0.874362
siesta:   1445    1.091637    0.000020   -0.148387
siesta:   1446    0.308435    0.617277   -1.388263
siesta:   1447    0.574237   -0.242362   -0.670402
siesta:   1448   -0.198718   -0.284334    1.378265
siesta:   1449   -0.127141    0.747431    0.002388
siesta:   1450    1.621609    0.245004    0.138653
siesta:   1451   -0.431603   -1.597627    0.424111
siesta:   1452   -1.565682    0.902568   -0.610511
siesta:   1453   -0.636447   -0.874543   -0.215334
siesta:   1454   -0.391133    0.630028    0.015717
siesta:   1455    0.680511    0.552052    0.160302
siesta:   1456    1.948775    0.202520   -0.511495
siesta:   1457   -1.709750    0.517592    0.214246
siesta:   1458   -0.275769   -0.802748    0.294897
siesta:   1459    0.514251   -0.738144   -0.651271
siesta:   1460    0.147562    0.961476   -0.354456
siesta:   1461   -0.600053    0.142948    0.937371
siesta:   1462    0.225121   -0.812148   -0.481222
siesta:   1463   -0.304090    0.185495   -0.120046
siesta:   1464    0.069787    0.653021    0.908320
siesta:   1465    1.190570   -1.477378   -1.273466
siesta:   1466   -0.380329    1.232192    0.890418
siesta:   1467   -0.482835   -0.339971   -0.032332
siesta:   1468   -0.187242    0.274306    1.308109
siesta:   1469   -0.887827   -0.017465   -0.932726
siesta:   1470    1.094910   -0.232382   -0.286075
siesta:   1471   -0.086510    0.688240    1.789811
siesta:   1472    0.503277   -1.309823   -0.653179
siesta:   1473   -0.518569    0.684542   -0.943846
siesta:   1474   -1.271499   -0.677359    0.613383
siesta:   1475    1.180090   -0.112435    0.102582
siesta:   1476   -0.340300    1.273829   -0.168188
siesta:   1477    1.441632    0.318195   -1.071761
siesta:   1478   -0.158207   -1.131039    0.257511
siesta:   1479   -0.841970    0.580322    0.252789
siesta:   1480   -1.241251    0.068494    0.643524
siesta:   1481    0.703924   -0.383811   -0.538416
siesta:   1482    0.543952    0.637131    0.066698
siesta:   1483    0.574573    0.623193    1.370644
siesta:   1484    0.671886    0.238223   -0.635098
siesta:   1485   -0.857852   -0.462150   -0.616235
siesta:   1486    0.096999    1.282758    0.381086
siesta:   1487   -0.913091   -0.768194   -0.579749
siesta:   1488    0.826938   -0.769369    0.446314
siesta:   1489   -0.817790    0.837732   -1.113197
siesta:   1490    0.141250   -0.814001    1.909119
siesta:   1491    0.853210    0.399134   -0.395859
siesta:   1492   -0.269292    0.449251    1.338165
siesta:   1493    1.067569    0.517051   -0.652400
siesta:   1494   -0.070229   -0.684934   -0.928013
siesta:   1495    0.615654   -1.251426   -1.880697
siesta:   1496   -0.797974   -0.237711    0.567450
siesta:   1497    0.052809    1.240747    0.997991
siesta:   1498    0.504263    0.096160   -1.285695
siesta:   1499   -1.025898    0.338850    0.326810
siesta:   1500    0.854691   -0.648753    0.664341
siesta:   1501    0.743914   -0.585064    1.262512
siesta:   1502    0.588327    0.061134   -0.572867
siesta:   1503   -1.165769    0.412447   -0.615756
siesta:   1504    0.404603    1.569399   -0.978391
siesta:   1505   -0.402907    0.121464    1.286815
siesta:   1506   -0.182317   -1.233885   -0.485619
siesta:   1507   -0.678230    0.598770    1.220372
siesta:   1508   -0.048784   -0.750034   -0.944975
siesta:   1509    0.557353    0.396252   -0.199571
siesta:   1510   -0.605340   -0.529185    0.571364
siesta:   1511   -0.104662    0.791416   -0.509007
siesta:   1512    0.765103   -0.147515    0.007378
siesta:   1513   -0.344040    0.639378    1.689681
siesta:   1514    1.024337   -0.585191    0.086810
siesta:   1515   -0.770970    0.320026   -1.275125
siesta:   1516   -0.074286    0.820227    1.354305
siesta:   1517   -0.242060   -1.546381   -1.246899
siesta:   1518    0.403261    0.659777   -0.613920
siesta:   1519   -1.139341    0.859946    0.607070
siesta:   1520   -0.498195   -1.062149   -0.472758
siesta:   1521    1.574732    0.107118   -0.211679
siesta:   1522   -0.367376   -0.101177    0.241557
siesta:   1523   -0.312063   -0.742304   -0.585092
siesta:   1524    0.407734    0.995708    0.143797
siesta:   1525    0.563410    0.928453   -1.178963
siesta:   1526   -0.981014   -0.769827   -0.343840
siesta:   1527    0.369798    0.197839    1.266144
siesta:   1528   -0.370800   -0.559847    0.167664
siesta:   1529    0.860260    0.480336   -0.014234
siesta:   1530   -0.443539    0.273927   -0.367003
siesta:   1531    1.367901    0.628870    0.256762
siesta:   1532   -0.771979   -0.660557    0.997655
siesta:   1533   -0.115139   -0.343503   -0.993693
siesta:   1534    0.034880   -1.871224   -0.172399
siesta:   1535    0.772119    0.267504    0.109299
siesta:   1536   -0.847664    1.349781   -0.004847
siesta: ----------------------------------------
siesta:    Tot   -0.991530    0.543513   -0.682241

siesta: Stress tensor (static) (eV/Ang**3):
siesta:    -0.030827    0.000324   -0.000099
siesta:     0.000324   -0.028000   -0.002832
siesta:    -0.000099   -0.002832   -0.027357

siesta: Cell volume =      15320.530614 Ang**3

siesta: Pressure (static):
siesta:                Solid            Molecule  Units
siesta:           0.00031289          0.00003117  Ry/Bohr**3
siesta:           0.02872810          0.00286159  eV/Ang**3
siesta:          46.02798436          4.58482751  kBar
(Free)E+ p_basis*V_orbitals  =     -240547.355859
(Free)Eharris+ p_basis*V_orbitals  =     -240547.355861
>> End of run:  20-DEC-2016  22:52:18
************************************************************************************************************************
***             WIDEN YOUR WINDOW TO 120 CHARACTERS.  Use 'enscript -r -fCourier9' to print this document            ***
************************************************************************************************************************

---------------------------------------------- PETSc Performance Summary: ----------------------------------------------

/home/keceli/scratch2/siesta-qetsc/Obj/siesta on a arch-xl named Q02-I1-J01.vesta.itd with 2048 processors, by Unknown Tue Dec 20 22:52:18 2016
Using Petsc Development GIT revision: v3.7.3-1204-g68f0caa  GIT Date: 2016-08-19 16:41:02 -0500

                         Max       Max/Min        Avg      Total 
Time (sec):           1.014e+03      1.00000   1.014e+03
Objects:              1.000e+00      1.00000   1.000e+00
Flops:                0.000e+00      0.00000   0.000e+00  0.000e+00
Flops/sec:            0.000e+00      0.00000   0.000e+00  0.000e+00
MPI Messages:         0.000e+00      0.00000   0.000e+00  0.000e+00
MPI Message Lengths:  0.000e+00      0.00000   0.000e+00  0.000e+00
MPI Reductions:       1.000e+00      1.00000

Flop counting convention: 1 flop = 1 real number operation of type (multiply/divide/add/subtract)
                            e.g., VecAXPY() for real vectors of length N --> 2N flops
                            and VecAXPY() for complex vectors of length N --> 8N flops

Summary of Stages:   ----- Time ------  ----- Flops -----  --- Messages ---  -- Message Lengths --  -- Reductions --
                        Avg     %Total     Avg     %Total   counts   %Total     Avg         %Total   counts   %Total 
 0:      Main Stage: 2.0022e-04   0.0%  0.0000e+00   0.0%  0.000e+00   0.0%  0.000e+00        0.0%  0.000e+00   0.0% 
 1:     siesta_init: 3.5971e+00   0.4%  0.0000e+00   0.0%  0.000e+00   0.0%  0.000e+00        0.0%  0.000e+00   0.0% 
 2:   siesta_forces: 6.9587e+01   6.9%  0.0000e+00   0.0%  0.000e+00   0.0%  0.000e+00        0.0%  0.000e+00   0.0% 
 3:    siesta_solve: 8.8466e+02  87.2%  0.0000e+00   0.0%  0.000e+00   0.0%  0.000e+00        0.0%  0.000e+00   0.0% 
10:     siesta_misc: 9.2416e+00   0.9%  0.0000e+00   0.0%  0.000e+00   0.0%  0.000e+00        0.0%  0.000e+00   0.0% 
11:     siesta_move: 4.1169e-01   0.0%  0.0000e+00   0.0%  0.000e+00   0.0%  0.000e+00        0.0%  0.000e+00   0.0% 
12: siesta_analysis: 8.5935e-03   0.0%  0.0000e+00   0.0%  0.000e+00   0.0%  0.000e+00        0.0%  0.000e+00   0.0% 
13:     qetsc_clean: 3.6528e-06   0.0%  0.0000e+00   0.0%  0.000e+00   0.0%  0.000e+00        0.0%  0.000e+00   0.0% 
14:      siesta_end: 4.6623e+01   4.6%  0.0000e+00   0.0%  0.000e+00   0.0%  0.000e+00        0.0%  0.000e+00   0.0% 

------------------------------------------------------------------------------------------------------------------------
See the 'Profiling' chapter of the users' manual for details on interpreting output.
Phase summary info:
   Count: number of times phase was executed
   Time and Flops: Max - maximum over all processors
                   Ratio - ratio of maximum to minimum over all processors
   Mess: number of messages sent
   Avg. len: average message length (bytes)
   Reduct: number of global reductions
   Global: entire computation
   Stage: stages of a computation. Set stages with PetscLogStagePush() and PetscLogStagePop().
      %T - percent time in this phase         %F - percent flops in this phase
      %M - percent messages in this phase     %L - percent message lengths in this phase
      %R - percent reductions in this phase
   Total Mflop/s: 10e-6 * (sum of flops over all processors)/(max time over all processors)
------------------------------------------------------------------------------------------------------------------------
Event                Count      Time (sec)     Flops                             --- Global ---  --- Stage ---   Total
                   Max Ratio  Max     Ratio   Max  Ratio  Mess   Avg len Reduct  %T %F %M %L %R  %T %F %M %L %R Mflop/s
------------------------------------------------------------------------------------------------------------------------

--- Event Stage 0: Main Stage


--- Event Stage 1: siesta_init


--- Event Stage 2: siesta_forces


--- Event Stage 3: siesta_solve


--- Event Stage 4: Unknown


--- Event Stage 5: Unknown


--- Event Stage 6: Unknown


--- Event Stage 7: Unknown


--- Event Stage 8: Unknown


--- Event Stage 9: Unknown


--- Event Stage 10: siesta_misc


--- Event Stage 11: siesta_move


--- Event Stage 12: siesta_analysis


--- Event Stage 13: qetsc_clean


--- Event Stage 14: siesta_end

------------------------------------------------------------------------------------------------------------------------

Memory usage is given in bytes:

Object Type          Creations   Destructions     Memory  Descendants' Mem.
Reports information only for process 0.

--- Event Stage 0: Main Stage


--- Event Stage 1: siesta_init


--- Event Stage 2: siesta_forces


--- Event Stage 3: siesta_solve


--- Event Stage 4: Unknown


--- Event Stage 5: Unknown


--- Event Stage 6: Unknown


--- Event Stage 7: Unknown


--- Event Stage 8: Unknown


--- Event Stage 9: Unknown


--- Event Stage 10: siesta_misc


--- Event Stage 11: siesta_move


--- Event Stage 12: siesta_analysis


--- Event Stage 13: qetsc_clean


--- Event Stage 14: siesta_end

              Viewer     1              0            0     0.
========================================================================================================================
Average time to get PetscTime(): 1.38125e-07
Average time for MPI_Barrier(): 3.57425e-06
Average time for zero size MPI_Send(): 1.57398e-05
#PETSc Option Table entries:
-eps_interval -2.3,0.
-eps_krylovschur_detect_zeros 0
-eps_krylovschur_partitions 1
-ioptbin 7
-ioptdensity 0
-ioptinertia 1
-ioptleft 2
-ioptwrite 1
-log_view
-mat_mumps_icntl_7 5
-mat_type mpisbaij
-roptbuffer 0.1
-roptdiff 0.05
#End of PETSc Option Table entries
Compiled with FORTRAN kernels
Compiled with full precision matrices (default)
sizeof(short) 2 sizeof(int) 4 sizeof(long) 8 sizeof(void*) 8 sizeof(PetscScalar) 8 sizeof(PetscInt) 4
Configure options: --known-has-attribute-aligned=1 --download-chaco=0 --download-cmake=0 --download-hypre=0 --download-metis=1 --download-mumps=1 --download-parmetis=1 --download-plapack=0 --download-prometheus=0 --download-ptscotch=1 --download-spai=0 --download-spooles=0 --download-superlu=0 --download-superlu_dist=0 --download-triangle=0 --known-bits-per-byte=8 --known-level1-dcache-assoc=0 --known-level1-dcache-linesize=32 --known-level1-dcache-size=32768 --known-memcmp-ok=1 --known-mpi-c-double-complex=1 --known-mpi-int64_t=1 --known-mpi-long-double=1 --known-mpi-shared-libraries=0 --known-sdot-returns-double=0 --known-sizeof-MPI_Comm=4 --known-sizeof-MPI_Fint=4 --known-sizeof-char=1 --known-sizeof-double=8 --known-sizeof-float=4 --known-sizeof-int=4 --known-sizeof-long-long=8 --known-sizeof-long=8 --known-sizeof-short=2 --known-sizeof-size_t=8 --known-sizeof-void-p=8 --known-snrm2-returns-double=0 --with-batch=1 --with-blacs-include=/soft/libraries/alcf/current/xl/SCALAPACK/ --with-blacs-lib=/soft/libraries/alcf/current/xl/SCALAPACK/lib/libscalapack.a --with-blas-lapack-lib="-L/soft/libraries/alcf/current/xl/LAPACK/lib -llapack -L/soft/libraries/alcf/current/xl/BLAS/lib -lblas" --with-cc=mpixlc_r --with-clib-autodetect=0 --with-cxx=mpixlcxx_r --with-cxxlib-autodetect=0 --with-debugging=0 --with-fc="mpixlf77_r -qnosave" --with-fortran-kernels=1 --with-fortranlib-autodetect=0 --with-is-color-value-type=short --with-scalapack-include=/soft/libraries/alcf/current/xl/SCALAPACK/ --with-scalapack-lib=/soft/libraries/alcf/current/xl/SCALAPACK/lib/libscalapack.a --with-shared-libraries=0 --with-x=0 -COPTFLAGS=" -g -O3 -qhot=level=0 -qsimd=auto -qmaxmem=-1 -qstrict -qstrict_induction" -CXXOPTFLAGS="  -g -O3 -qhot=level=0 -qsimd=auto -qmaxmem=-1 -qstrict -qstrict_induction" -FOPTFLAGS=" -g -O3 -qhot=level=0 -qsimd=auto -qmaxmem=-1 -qstrict -qstrict_induction" LIBS="-lmpichcxx-gcc -lmpichf77-gcc -L/soft/compilers/ibmcmp-feb2015/vacpp/bg/12.1/bglib64 -libmc++ -L/soft/compilers/ibmcmp-feb2015/xlf/bg/14.1/bglib64 -lxlf90_r -lxlomp_ser -lxlfmath" PETSC_ARCH=arch-xl
-----------------------------------------
Libraries compiled on Sat Aug 20 04:19:47 2016 on vestalac2 
Machine characteristics: Linux-2.6.32-573.18.1.el6.ppc64-ppc64-with-redhat-6.7-Santiago
Using PETSc directory: /home/keceli/scratch2/petsc
Using PETSc arch: arch-xl
-----------------------------------------

Using C compiler: mpixlc_r   -g -O3 -qhot=level=0 -qsimd=auto -qmaxmem=-1 -qstrict -qstrict_induction  ${COPTFLAGS} ${CFLAGS}
Using Fortran compiler: mpixlf77_r -qnosave  -g -O3 -qhot=level=0 -qsimd=auto -qmaxmem=-1 -qstrict -qstrict_induction   ${FOPTFLAGS} ${FFLAGS} 
-----------------------------------------

Using include paths: -I/home/keceli/scratch2/petsc/arch-xl/include -I/home/keceli/scratch2/petsc/include -I/home/keceli/scratch2/petsc/include -I/home/keceli/scratch2/petsc/arch-xl/include -I/bgsys/drivers/V1R2M4/ppc64/comm/include -I/bgsys/drivers/V1R2M4/ppc64/comm/lib/xl -I/bgsys/drivers/V1R2M4/ppc64 -I/bgsys/drivers/V1R2M4/ppc64/comm/sys/include -I/bgsys/drivers/V1R2M4/ppc64/spi/include -I/bgsys/drivers/V1R2M4/ppc64/spi/include/kernel/cnk
-----------------------------------------

Using C linker: mpixlc_r
Using Fortran linker: mpixlf77_r -qnosave
Using libraries: -Wl,-rpath,/home/keceli/scratch2/petsc/arch-xl/lib -L/home/keceli/scratch2/petsc/arch-xl/lib -lpetsc -Wl,-rpath,/home/keceli/scratch2/petsc/arch-xl/lib -L/home/keceli/scratch2/petsc/arch-xl/lib -lcmumps -ldmumps -lsmumps -lzmumps -lmumps_common -lpord -Wl,-rpath,/soft/libraries/alcf/current/xl/SCALAPACK/lib -L/soft/libraries/alcf/current/xl/SCALAPACK/lib -lscalapack -L/soft/libraries/alcf/current/xl/LAPACK/lib -llapack -L/soft/libraries/alcf/current/xl/BLAS/lib -lblas -lparmetis -lmetis -lptesmumps -lptscotch -lptscotcherr -lscotch -lscotcherr -lrt -lm -lpthread -ldl -lmpichcxx-gcc -lmpichf77-gcc -L/soft/compilers/ibmcmp-feb2015/vacpp/bg/12.1/bglib64 -libmc++ -L/soft/compilers/ibmcmp-feb2015/xlf/bg/14.1/bglib64 -lxlf90_r -lxlomp_ser -lxlfmath
-----------------------------------------

