s.subSiesta: Submission time = 57s00m18h
s.subSiesta: Job name = qp64_s32_n2_c16_vesta
s.subSiesta: Number of nodes = 2
s.subSiesta: Number of cores = 32
s.subSiesta: Number of cores/node = 16
s.subSiesta: Number of slices = 32
s.subSiesta: Mapping = ABCDET
57s00m18h
#QETSc options
-ioptbin 7
-ioptdensity 0
-ioptinertia 1
-ioptleft 2
-ioptwrite 1 
#-roptbuffer 0.01
#-roptdiff 0.02

#PETSc options
-mat_type mpisbaij
-log_view
#-mat_view
#-memory_view
#-mat_mumps_icntl_13 1 #turn off scaLAPACK for matrix inertia
#-mat_mumps_icntl_24 1 #null pivot row detection for matrix inertia
-mat_mumps_icntl_23 0
#-mat_mumps_icntl_28 1 # serial analysis
#-mat_mumps_icntl_28 2 #parallel analysis
#-mat_mumps_icntl_29 1 #ptscotch
#-mat_mumps_icntl_29 2 #parmetis
-mat_mumps_icntl_7 5 #metis
#-malloc_info 
#-mat_view ::ascii_info 
#-mat_getrow_uppertriangular 1
#-st_type sinvert 
#-st_ksp_type preonly 
#-st_pc_type cholesky 
#-st_pc_factor_mat_solver_package mumps 

#SLEPc options

#-eps_krylovschur_partitions 1  
-eps_interval -2.3,0.
#-eps_tol  1.e-8
-eps_krylovschur_detect_zeros 0
#-eps_purify 1
SystemName          polyethylene
SystemLabel         polyethylene
NumberOfAtoms       6
NumberOfSpecies     2

%block ChemicalSpeciesLabel
 1  6  C
 2  1  H
%endblock ChemicalSpeciesLabel

DM.MixingWeight 0.3
DM.NumberPulay 3
#BlockSize 23
SolutionMethod  qetsc
WriteDM .false.
WriteDM.NetCDF .false.
WriteDMHS.NetCDF .false.
LongOutput .false.
#MaxSCFIterations 1

PAO.BasisType split
PAO.BasisSize DZP

LatticeConstant 1.00 Ang
%block LatticeVectors
20.000  0.000  0.000
 0.000 20.000  0.000
 0.000  0.000  2.572
%endblock LatticeVectors

%block kgrid_Monkhorst_Pack
1 0 0 0.0
0 1 0 0.0
0 0 1 0.0
%endblock kgrid_Monkhorst_Pack

%block SuperCell
1 0 0
0 1 0
0 0 64
%endblock SuperCell

AtomicCoordinatesFormat Ang
%block AtomicCoordinatesAndAtomicSpecies
  0.31237500000000001       0.28138740000000001       0.64300000000000002     1
   1.3964999999999999        7.3970400000000006E-002  0.64300000000000002     2
  0.21462000000000001        1.3794480000000002       0.64300000000000002     2
 -0.31237500000000001      -0.28138740000000001      -0.64300000000000002     1
  -1.3964999999999999       -7.3970400000000006E-002 -0.64300000000000002     2
 -0.21462000000000001       -1.3794480000000002      -0.64300000000000002     2
%endblock AtomicCoordinatesAndAtomicSpecies
Siesta Version: siesta-trunk-492
Architecture  : powerpc64-unknown-linux-gnu--Xlf
Compiler flags: mpixlf90_r -I/home/keceli/scratch2/petsc/include -I/home/keceli/scratch2/petssc/arch-xl/include -I/bgsys/drivers/V1R2M4/ppc64/comm/include -I/bgsys/drivers/V1R2M4/ppc64/comm/lib/xl -I/bgsys/drivers/V1R2M4/ppc64 -I/bgsys/drivers/V1R2M4/ppc64/comm/sys/include -I/bgsys/drivers/V1R2M4/ppc64/spi/include -I/bgsys/drivers/V1R2M4/ppc64/spi/include/kernel/cnk -I/home/keceli/scratch2/slepcfork/include -I/home/keceli/scratch2/slepcfork/arch-xl/include
PP flags      : -WF,-DMPI -WF,-DFC_HAVE_ABORT -WF,-DBSC_CELLXC -WF,-DMPI_TIMING 
PARALLEL version

* Running on   32 nodes in parallel
>> Start of run:  11-JAN-2017  18:01:50

                           ***********************       
                           *  WELCOME TO SIESTA  *       
                           ***********************       
WARNING: Siesta is reading its input from file INPUT_DEBUG

reinit: -----------------------------------------------------------------------
reinit: System Name: polyethylene
reinit: -----------------------------------------------------------------------
reinit: System Label: polyethylene                                                
reinit: -----------------------------------------------------------------------

initatom: Reading input for the pseudopotentials and atomic orbitals ----------
Species number:   1 Atomic number:    6 Label: C
Species number:   2 Atomic number:    1 Label: H
 
Ground state valence configuration:   2s02  2p02
Reading pseudopotential information in formatted form from C.psf

Valence configuration for pseudopotential generation:
2s( 2.00) rc: 1.54
2p( 2.00) rc: 1.54
3d( 0.00) rc: 1.54
4f( 0.00) rc: 1.54
Ground state valence configuration:   1s01
Reading pseudopotential information in formatted form from H.psf

Valence configuration for pseudopotential generation:
1s( 1.00) rc: 1.31
2p( 0.00) rc: 1.31
3d( 0.00) rc: 0.37
4f( 0.00) rc: 1.31
For C, standard SIESTA heuristics set lmxkb to 3
 (one more than the basis l, including polarization orbitals).
Use PS.lmax or PS.KBprojectors blocks to override.
For H, standard SIESTA heuristics set lmxkb to 2
 (one more than the basis l, including polarization orbitals).
Use PS.lmax or PS.KBprojectors blocks to override.

<basis_specs>
===============================================================================
C                    Z=   6    Mass=  12.010        Charge= 0.17977+309
Lmxo=1 Lmxkb= 3    BasisType=split      Semic=F
L=0  Nsemic=0  Cnfigmx=2
          n=1  nzeta=2  polorb=0
            splnorm:   0.15000    
               vcte:    0.0000    
               rinn:    0.0000    
               qcoe:    0.0000    
               qyuk:    0.0000    
               qwid:   0.10000E-01
                rcs:    0.0000      0.0000    
            lambdas:    1.0000      1.0000    
L=1  Nsemic=0  Cnfigmx=2
          n=1  nzeta=2  polorb=1
            splnorm:   0.15000    
               vcte:    0.0000    
               rinn:    0.0000    
               qcoe:    0.0000    
               qyuk:    0.0000    
               qwid:   0.10000E-01
                rcs:    0.0000      0.0000    
            lambdas:    1.0000      1.0000    
-------------------------------------------------------------------------------
L=0  Nkbl=1  erefs: 0.17977+309
L=1  Nkbl=1  erefs: 0.17977+309
L=2  Nkbl=1  erefs: 0.17977+309
L=3  Nkbl=1  erefs: 0.17977+309
===============================================================================
</basis_specs>

atom: Called for C                     (Z =   6)

read_vps: Pseudopotential generation method:
read_vps: ATM3      Troullier-Martins                       
Total valence charge:    4.00000

xc_check: Exchange-correlation functional:
xc_check: Ceperley-Alder
V l=0 = -2*Zval/r beyond r=  1.5227
V l=1 = -2*Zval/r beyond r=  1.5227
V l=2 = -2*Zval/r beyond r=  1.5227
V l=3 = -2*Zval/r beyond r=  1.5038
All V_l potentials equal beyond r=  1.5227
This should be close to max(r_c) in ps generation
All pots = -2*Zval/r beyond r=  1.5227

VLOCAL1: 99.0% of the norm of Vloc inside     18.722 Ry
VLOCAL1: 99.9% of the norm of Vloc inside     42.668 Ry
atom: Maximum radius for 4*pi*r*r*local-pseudopot. charge    1.83678
atom: Maximum radius for r*vlocal+2*Zval:    1.58088
GHOST: No ghost state for L =  0
GHOST: No ghost state for L =  1
GHOST: No ghost state for L =  2
GHOST: No ghost state for L =  3

KBgen: Kleinman-Bylander projectors: 
   l= 0   rc=  1.747182   el= -1.001948   Ekb=  4.950286   kbcos=  0.319819
   l= 1   rc=  1.747182   el= -0.398598   Ekb= -4.108613   kbcos= -0.367053
   l= 2   rc=  1.930978   el=  0.002326   Ekb= -1.042946   kbcos= -0.009366
   l= 3   rc=  2.055542   el=  0.003420   Ekb= -0.408633   kbcos= -0.001262

KBgen: Total number of  Kleinman-Bylander projectors:   16
atom: -------------------------------------------------------------------------

atom: SANKEY-TYPE ORBITALS:
atom: Selected multiple-zeta basis: split     

SPLIT: Orbitals with angular momentum L= 0

SPLIT: Basis orbitals for state 2s

SPLIT: PAO cut-off radius determined from an
SPLIT: energy shift=  0.020000 Ry

   izeta = 1
                 lambda =    1.000000
                     rc =    4.191849
                 energy =   -0.983897
                kinetic =    0.880927
    potential(screened) =   -1.864824
       potential(ionic) =   -5.475687

   izeta = 2
                 rmatch =    3.431921
              splitnorm =    0.150000
                 energy =   -0.853083
                kinetic =    1.298222
    potential(screened) =   -2.151305
       potential(ionic) =   -5.995890

SPLIT: Orbitals with angular momentum L= 1

SPLIT: Basis orbitals for state 2p

SPLIT: PAO cut-off radius determined from an
SPLIT: energy shift=  0.020000 Ry

   izeta = 1
                 lambda =    1.000000
                     rc =    4.870301
                 energy =   -0.379093
                kinetic =    2.540023
    potential(screened) =   -2.919116
       potential(ionic) =   -6.427960

   izeta = 2
                 rmatch =    3.475094
              splitnorm =    0.150000
                 energy =   -0.215057
                kinetic =    3.814571
    potential(screened) =   -4.029628
       potential(ionic) =   -7.920250

POLgen: Perturbative polarization orbital with L=  2

POLgen: Polarization orbital for state 2p

   izeta = 1
                     rc =    4.870301
                 energy =    1.280996
                kinetic =    2.631310
    potential(screened) =   -1.350314
       potential(ionic) =   -4.295640
atom: Total number of Sankey-type orbitals: 13

atm_pop: Valence configuration (for local Pseudopot. screening):
 2s( 2.00)                                                            
 2p( 2.00)                                                            
Vna: chval, zval:    4.00000   4.00000

Vna:  Cut-off radius for the neutral-atom potential:   4.870301

atom: _________________________________________________________________________

<basis_specs>
===============================================================================
H                    Z=   1    Mass=  1.0100        Charge= 0.17977+309
Lmxo=0 Lmxkb= 2    BasisType=split      Semic=F
L=0  Nsemic=0  Cnfigmx=1
          n=1  nzeta=2  polorb=1
            splnorm:   0.15000    
               vcte:    0.0000    
               rinn:    0.0000    
               qcoe:    0.0000    
               qyuk:    0.0000    
               qwid:   0.10000E-01
                rcs:    0.0000      0.0000    
            lambdas:    1.0000      1.0000    
-------------------------------------------------------------------------------
L=0  Nkbl=1  erefs: 0.17977+309
L=1  Nkbl=1  erefs: 0.17977+309
L=2  Nkbl=1  erefs: 0.17977+309
===============================================================================
</basis_specs>

atom: Called for H                     (Z =   1)

read_vps: Pseudopotential generation method:
read_vps: ATM3      Troullier-Martins                       
Total valence charge:    1.00000

xc_check: Exchange-correlation functional:
xc_check: Ceperley-Alder
V l=0 = -2*Zval/r beyond r=  1.2977
V l=1 = -2*Zval/r beyond r=  1.2815
V l=2 = -2*Zval/r beyond r=  1.1307
All V_l potentials equal beyond r=  1.2977
This should be close to max(r_c) in ps generation
All pots = -2*Zval/r beyond r=  1.2977

VLOCAL1: 99.0% of the norm of Vloc inside     25.776 Ry
VLOCAL1: 99.9% of the norm of Vloc inside     58.745 Ry
atom: Maximum radius for 4*pi*r*r*local-pseudopot. charge    1.52711
atom: Maximum radius for r*vlocal+2*Zval:    1.28155
GHOST: No ghost state for L =  0
GHOST: No ghost state for L =  1
GHOST: No ghost state for L =  2

KBgen: Kleinman-Bylander projectors: 
   l= 0   rc=  1.434438   el= -0.467325   Ekb= -1.940326   kbcos= -0.353040
   l= 1   rc=  1.508111   el=  0.001430   Ekb= -0.480826   kbcos= -0.024144
   l= 2   rc=  1.527112   el=  0.002365   Ekb= -0.479392   kbcos= -0.001656

KBgen: Total number of  Kleinman-Bylander projectors:    9
atom: -------------------------------------------------------------------------

atom: SANKEY-TYPE ORBITALS:
atom: Selected multiple-zeta basis: split     

SPLIT: Orbitals with angular momentum L= 0

SPLIT: Basis orbitals for state 1s

SPLIT: PAO cut-off radius determined from an
SPLIT: energy shift=  0.020000 Ry

   izeta = 1
                 lambda =    1.000000
                     rc =    4.828263
                 energy =   -0.449375
                kinetic =    0.925762
    potential(screened) =   -1.375137
       potential(ionic) =   -1.911235

   izeta = 2
                 rmatch =    3.854947
              splitnorm =    0.150000
                 energy =   -0.336149
                kinetic =    1.498089
    potential(screened) =   -1.834238
       potential(ionic) =   -2.406110

POLgen: Perturbative polarization orbital with L=  1

POLgen: Polarization orbital for state 1s

   izeta = 1
                     rc =    4.828263
                 energy =    0.707053
                kinetic =    1.398668
    potential(screened) =   -0.691614
       potential(ionic) =   -1.171973
atom: Total number of Sankey-type orbitals:  5

atm_pop: Valence configuration (for local Pseudopot. screening):
 1s( 1.00)                                                            
Vna: chval, zval:    1.00000   1.00000

Vna:  Cut-off radius for the neutral-atom potential:   4.828263

atom: _________________________________________________________________________

prinput: Basis input ----------------------------------------------------------

PAO.BasisType split     

%block ChemicalSpeciesLabel
    1    6 C                       # Species index, atomic number, species label
    2    1 H                       # Species index, atomic number, species label
%endblock ChemicalSpeciesLabel

%block PAO.Basis                 # Define Basis set
C                     2                    # Species label, number of l-shells
 n=2   0   2                         # n, l, Nzeta 
   4.192      3.432   
   1.000      1.000   
 n=2   1   2 P   1                   # n, l, Nzeta, Polarization, NzetaPol
   4.870      3.475   
   1.000      1.000   
H                     1                    # Species label, number of l-shells
 n=1   0   2 P   1                   # n, l, Nzeta, Polarization, NzetaPol
   4.828      3.855   
   1.000      1.000   
%endblock PAO.Basis

prinput: ----------------------------------------------------------------------

coor:   Atomic-coordinates input format  =     Cartesian coordinates
coor:                                          (in Angstroms)

siesta: Atomic coordinates (Bohr) and species
siesta:      0.59030   0.53175   1.21509  1        1
siesta:      2.63900   0.13978   1.21509  2        2
siesta:      0.40557   2.60678   1.21509  2        3
siesta:     -0.59030  -0.53175  -1.21509  1        4
siesta:     -2.63900  -0.13978  -1.21509  2        5
siesta:     -0.40557  -2.60678  -1.21509  2        6
siesta:      0.59030   0.53175   6.07547  1        7
siesta:      2.63900   0.13978   6.07547  2        8
siesta:      0.40557   2.60678   6.07547  2        9
siesta:     -0.59030  -0.53175   3.64528  1       10
siesta:     -2.63900  -0.13978   3.64528  2       11
siesta:     -0.40557  -2.60678   3.64528  2       12
siesta:      0.59030   0.53175  10.93585  1       13
siesta:      2.63900   0.13978  10.93585  2       14
siesta:      0.40557   2.60678  10.93585  2       15
siesta:     -0.59030  -0.53175   8.50566  1       16
siesta:     -2.63900  -0.13978   8.50566  2       17
siesta:     -0.40557  -2.60678   8.50566  2       18
siesta:      0.59030   0.53175  15.79623  1       19
siesta:      2.63900   0.13978  15.79623  2       20
siesta:      0.40557   2.60678  15.79623  2       21
siesta:     -0.59030  -0.53175  13.36604  1       22
siesta:     -2.63900  -0.13978  13.36604  2       23
siesta:     -0.40557  -2.60678  13.36604  2       24
siesta:      0.59030   0.53175  20.65660  1       25
siesta:      2.63900   0.13978  20.65660  2       26
siesta:      0.40557   2.60678  20.65660  2       27
siesta:     -0.59030  -0.53175  18.22642  1       28
siesta:     -2.63900  -0.13978  18.22642  2       29
siesta:     -0.40557  -2.60678  18.22642  2       30
siesta:      0.59030   0.53175  25.51698  1       31
siesta:      2.63900   0.13978  25.51698  2       32
siesta:      0.40557   2.60678  25.51698  2       33
siesta:     -0.59030  -0.53175  23.08679  1       34
siesta:     -2.63900  -0.13978  23.08679  2       35
siesta:     -0.40557  -2.60678  23.08679  2       36
siesta:      0.59030   0.53175  30.37736  1       37
siesta:      2.63900   0.13978  30.37736  2       38
siesta:      0.40557   2.60678  30.37736  2       39
siesta:     -0.59030  -0.53175  27.94717  1       40
siesta:     -2.63900  -0.13978  27.94717  2       41
siesta:     -0.40557  -2.60678  27.94717  2       42
siesta:      0.59030   0.53175  35.23774  1       43
siesta:      2.63900   0.13978  35.23774  2       44
siesta:      0.40557   2.60678  35.23774  2       45
siesta:     -0.59030  -0.53175  32.80755  1       46
siesta:     -2.63900  -0.13978  32.80755  2       47
siesta:     -0.40557  -2.60678  32.80755  2       48
siesta:      0.59030   0.53175  40.09811  1       49
siesta:      2.63900   0.13978  40.09811  2       50
siesta:      0.40557   2.60678  40.09811  2       51
siesta:     -0.59030  -0.53175  37.66793  1       52
siesta:     -2.63900  -0.13978  37.66793  2       53
siesta:     -0.40557  -2.60678  37.66793  2       54
siesta:      0.59030   0.53175  44.95849  1       55
siesta:      2.63900   0.13978  44.95849  2       56
siesta:      0.40557   2.60678  44.95849  2       57
siesta:     -0.59030  -0.53175  42.52830  1       58
siesta:     -2.63900  -0.13978  42.52830  2       59
siesta:     -0.40557  -2.60678  42.52830  2       60
siesta:      0.59030   0.53175  49.81887  1       61
siesta:      2.63900   0.13978  49.81887  2       62
siesta:      0.40557   2.60678  49.81887  2       63
siesta:     -0.59030  -0.53175  47.38868  1       64
siesta:     -2.63900  -0.13978  47.38868  2       65
siesta:     -0.40557  -2.60678  47.38868  2       66
siesta:      0.59030   0.53175  54.67925  1       67
siesta:      2.63900   0.13978  54.67925  2       68
siesta:      0.40557   2.60678  54.67925  2       69
siesta:     -0.59030  -0.53175  52.24906  1       70
siesta:     -2.63900  -0.13978  52.24906  2       71
siesta:     -0.40557  -2.60678  52.24906  2       72
siesta:      0.59030   0.53175  59.53962  1       73
siesta:      2.63900   0.13978  59.53962  2       74
siesta:      0.40557   2.60678  59.53962  2       75
siesta:     -0.59030  -0.53175  57.10944  1       76
siesta:     -2.63900  -0.13978  57.10944  2       77
siesta:     -0.40557  -2.60678  57.10944  2       78
siesta:      0.59030   0.53175  64.40000  1       79
siesta:      2.63900   0.13978  64.40000  2       80
siesta:      0.40557   2.60678  64.40000  2       81
siesta:     -0.59030  -0.53175  61.96981  1       82
siesta:     -2.63900  -0.13978  61.96981  2       83
siesta:     -0.40557  -2.60678  61.96981  2       84
siesta:      0.59030   0.53175  69.26038  1       85
siesta:      2.63900   0.13978  69.26038  2       86
siesta:      0.40557   2.60678  69.26038  2       87
siesta:     -0.59030  -0.53175  66.83019  1       88
siesta:     -2.63900  -0.13978  66.83019  2       89
siesta:     -0.40557  -2.60678  66.83019  2       90
siesta:      0.59030   0.53175  74.12076  1       91
siesta:      2.63900   0.13978  74.12076  2       92
siesta:      0.40557   2.60678  74.12076  2       93
siesta:     -0.59030  -0.53175  71.69057  1       94
siesta:     -2.63900  -0.13978  71.69057  2       95
siesta:     -0.40557  -2.60678  71.69057  2       96
siesta:      0.59030   0.53175  78.98113  1       97
siesta:      2.63900   0.13978  78.98113  2       98
siesta:      0.40557   2.60678  78.98113  2       99
siesta:     -0.59030  -0.53175  76.55095  1      100
siesta:     -2.63900  -0.13978  76.55095  2      101
siesta:     -0.40557  -2.60678  76.55095  2      102
siesta:      0.59030   0.53175  83.84151  1      103
siesta:      2.63900   0.13978  83.84151  2      104
siesta:      0.40557   2.60678  83.84151  2      105
siesta:     -0.59030  -0.53175  81.41132  1      106
siesta:     -2.63900  -0.13978  81.41132  2      107
siesta:     -0.40557  -2.60678  81.41132  2      108
siesta:      0.59030   0.53175  88.70189  1      109
siesta:      2.63900   0.13978  88.70189  2      110
siesta:      0.40557   2.60678  88.70189  2      111
siesta:     -0.59030  -0.53175  86.27170  1      112
siesta:     -2.63900  -0.13978  86.27170  2      113
siesta:     -0.40557  -2.60678  86.27170  2      114
siesta:      0.59030   0.53175  93.56227  1      115
siesta:      2.63900   0.13978  93.56227  2      116
siesta:      0.40557   2.60678  93.56227  2      117
siesta:     -0.59030  -0.53175  91.13208  1      118
siesta:     -2.63900  -0.13978  91.13208  2      119
siesta:     -0.40557  -2.60678  91.13208  2      120
siesta:      0.59030   0.53175  98.42264  1      121
siesta:      2.63900   0.13978  98.42264  2      122
siesta:      0.40557   2.60678  98.42264  2      123
siesta:     -0.59030  -0.53175  95.99246  1      124
siesta:     -2.63900  -0.13978  95.99246  2      125
siesta:     -0.40557  -2.60678  95.99246  2      126
siesta:      0.59030   0.53175 103.28302  1      127
siesta:      2.63900   0.13978 103.28302  2      128
siesta:      0.40557   2.60678 103.28302  2      129
siesta:     -0.59030  -0.53175 100.85283  1      130
siesta:     -2.63900  -0.13978 100.85283  2      131
siesta:     -0.40557  -2.60678 100.85283  2      132
siesta:      0.59030   0.53175 108.14340  1      133
siesta:      2.63900   0.13978 108.14340  2      134
siesta:      0.40557   2.60678 108.14340  2      135
siesta:     -0.59030  -0.53175 105.71321  1      136
siesta:     -2.63900  -0.13978 105.71321  2      137
siesta:     -0.40557  -2.60678 105.71321  2      138
siesta:      0.59030   0.53175 113.00378  1      139
siesta:      2.63900   0.13978 113.00378  2      140
siesta:      0.40557   2.60678 113.00378  2      141
siesta:     -0.59030  -0.53175 110.57359  1      142
siesta:     -2.63900  -0.13978 110.57359  2      143
siesta:     -0.40557  -2.60678 110.57359  2      144
siesta:      0.59030   0.53175 117.86416  1      145
siesta:      2.63900   0.13978 117.86416  2      146
siesta:      0.40557   2.60678 117.86416  2      147
siesta:     -0.59030  -0.53175 115.43397  1      148
siesta:     -2.63900  -0.13978 115.43397  2      149
siesta:     -0.40557  -2.60678 115.43397  2      150
siesta:      0.59030   0.53175 122.72453  1      151
siesta:      2.63900   0.13978 122.72453  2      152
siesta:      0.40557   2.60678 122.72453  2      153
siesta:     -0.59030  -0.53175 120.29434  1      154
siesta:     -2.63900  -0.13978 120.29434  2      155
siesta:     -0.40557  -2.60678 120.29434  2      156
siesta:      0.59030   0.53175 127.58491  1      157
siesta:      2.63900   0.13978 127.58491  2      158
siesta:      0.40557   2.60678 127.58491  2      159
siesta:     -0.59030  -0.53175 125.15472  1      160
siesta:     -2.63900  -0.13978 125.15472  2      161
siesta:     -0.40557  -2.60678 125.15472  2      162
siesta:      0.59030   0.53175 132.44529  1      163
siesta:      2.63900   0.13978 132.44529  2      164
siesta:      0.40557   2.60678 132.44529  2      165
siesta:     -0.59030  -0.53175 130.01510  1      166
siesta:     -2.63900  -0.13978 130.01510  2      167
siesta:     -0.40557  -2.60678 130.01510  2      168
siesta:      0.59030   0.53175 137.30567  1      169
siesta:      2.63900   0.13978 137.30567  2      170
siesta:      0.40557   2.60678 137.30567  2      171
siesta:     -0.59030  -0.53175 134.87548  1      172
siesta:     -2.63900  -0.13978 134.87548  2      173
siesta:     -0.40557  -2.60678 134.87548  2      174
siesta:      0.59030   0.53175 142.16604  1      175
siesta:      2.63900   0.13978 142.16604  2      176
siesta:      0.40557   2.60678 142.16604  2      177
siesta:     -0.59030  -0.53175 139.73585  1      178
siesta:     -2.63900  -0.13978 139.73585  2      179
siesta:     -0.40557  -2.60678 139.73585  2      180
siesta:      0.59030   0.53175 147.02642  1      181
siesta:      2.63900   0.13978 147.02642  2      182
siesta:      0.40557   2.60678 147.02642  2      183
siesta:     -0.59030  -0.53175 144.59623  1      184
siesta:     -2.63900  -0.13978 144.59623  2      185
siesta:     -0.40557  -2.60678 144.59623  2      186
siesta:      0.59030   0.53175 151.88680  1      187
siesta:      2.63900   0.13978 151.88680  2      188
siesta:      0.40557   2.60678 151.88680  2      189
siesta:     -0.59030  -0.53175 149.45661  1      190
siesta:     -2.63900  -0.13978 149.45661  2      191
siesta:     -0.40557  -2.60678 149.45661  2      192
siesta:      0.59030   0.53175 156.74718  1      193
siesta:      2.63900   0.13978 156.74718  2      194
siesta:      0.40557   2.60678 156.74718  2      195
siesta:     -0.59030  -0.53175 154.31699  1      196
siesta:     -2.63900  -0.13978 154.31699  2      197
siesta:     -0.40557  -2.60678 154.31699  2      198
siesta:      0.59030   0.53175 161.60755  1      199
siesta:      2.63900   0.13978 161.60755  2      200
siesta:      0.40557   2.60678 161.60755  2      201
siesta:     -0.59030  -0.53175 159.17736  1      202
siesta:     -2.63900  -0.13978 159.17736  2      203
siesta:     -0.40557  -2.60678 159.17736  2      204
siesta:      0.59030   0.53175 166.46793  1      205
siesta:      2.63900   0.13978 166.46793  2      206
siesta:      0.40557   2.60678 166.46793  2      207
siesta:     -0.59030  -0.53175 164.03774  1      208
siesta:     -2.63900  -0.13978 164.03774  2      209
siesta:     -0.40557  -2.60678 164.03774  2      210
siesta:      0.59030   0.53175 171.32831  1      211
siesta:      2.63900   0.13978 171.32831  2      212
siesta:      0.40557   2.60678 171.32831  2      213
siesta:     -0.59030  -0.53175 168.89812  1      214
siesta:     -2.63900  -0.13978 168.89812  2      215
siesta:     -0.40557  -2.60678 168.89812  2      216
siesta:      0.59030   0.53175 176.18869  1      217
siesta:      2.63900   0.13978 176.18869  2      218
siesta:      0.40557   2.60678 176.18869  2      219
siesta:     -0.59030  -0.53175 173.75850  1      220
siesta:     -2.63900  -0.13978 173.75850  2      221
siesta:     -0.40557  -2.60678 173.75850  2      222
siesta:      0.59030   0.53175 181.04906  1      223
siesta:      2.63900   0.13978 181.04906  2      224
siesta:      0.40557   2.60678 181.04906  2      225
siesta:     -0.59030  -0.53175 178.61887  1      226
siesta:     -2.63900  -0.13978 178.61887  2      227
siesta:     -0.40557  -2.60678 178.61887  2      228
siesta:      0.59030   0.53175 185.90944  1      229
siesta:      2.63900   0.13978 185.90944  2      230
siesta:      0.40557   2.60678 185.90944  2      231
siesta:     -0.59030  -0.53175 183.47925  1      232
siesta:     -2.63900  -0.13978 183.47925  2      233
siesta:     -0.40557  -2.60678 183.47925  2      234
siesta:      0.59030   0.53175 190.76982  1      235
siesta:      2.63900   0.13978 190.76982  2      236
siesta:      0.40557   2.60678 190.76982  2      237
siesta:     -0.59030  -0.53175 188.33963  1      238
siesta:     -2.63900  -0.13978 188.33963  2      239
siesta:     -0.40557  -2.60678 188.33963  2      240
siesta:      0.59030   0.53175 195.63020  1      241
siesta:      2.63900   0.13978 195.63020  2      242
siesta:      0.40557   2.60678 195.63020  2      243
siesta:     -0.59030  -0.53175 193.20001  1      244
siesta:     -2.63900  -0.13978 193.20001  2      245
siesta:     -0.40557  -2.60678 193.20001  2      246
siesta:      0.59030   0.53175 200.49057  1      247
siesta:      2.63900   0.13978 200.49057  2      248
siesta:      0.40557   2.60678 200.49057  2      249
siesta:     -0.59030  -0.53175 198.06038  1      250
siesta:     -2.63900  -0.13978 198.06038  2      251
siesta:     -0.40557  -2.60678 198.06038  2      252
siesta:      0.59030   0.53175 205.35095  1      253
siesta:      2.63900   0.13978 205.35095  2      254
siesta:      0.40557   2.60678 205.35095  2      255
siesta:     -0.59030  -0.53175 202.92076  1      256
siesta:     -2.63900  -0.13978 202.92076  2      257
siesta:     -0.40557  -2.60678 202.92076  2      258
siesta:      0.59030   0.53175 210.21133  1      259
siesta:      2.63900   0.13978 210.21133  2      260
siesta:      0.40557   2.60678 210.21133  2      261
siesta:     -0.59030  -0.53175 207.78114  1      262
siesta:     -2.63900  -0.13978 207.78114  2      263
siesta:     -0.40557  -2.60678 207.78114  2      264
siesta:      0.59030   0.53175 215.07171  1      265
siesta:      2.63900   0.13978 215.07171  2      266
siesta:      0.40557   2.60678 215.07171  2      267
siesta:     -0.59030  -0.53175 212.64152  1      268
siesta:     -2.63900  -0.13978 212.64152  2      269
siesta:     -0.40557  -2.60678 212.64152  2      270
siesta:      0.59030   0.53175 219.93208  1      271
siesta:      2.63900   0.13978 219.93208  2      272
siesta:      0.40557   2.60678 219.93208  2      273
siesta:     -0.59030  -0.53175 217.50189  1      274
siesta:     -2.63900  -0.13978 217.50189  2      275
siesta:     -0.40557  -2.60678 217.50189  2      276
siesta:      0.59030   0.53175 224.79246  1      277
siesta:      2.63900   0.13978 224.79246  2      278
siesta:      0.40557   2.60678 224.79246  2      279
siesta:     -0.59030  -0.53175 222.36227  1      280
siesta:     -2.63900  -0.13978 222.36227  2      281
siesta:     -0.40557  -2.60678 222.36227  2      282
siesta:      0.59030   0.53175 229.65284  1      283
siesta:      2.63900   0.13978 229.65284  2      284
siesta:      0.40557   2.60678 229.65284  2      285
siesta:     -0.59030  -0.53175 227.22265  1      286
siesta:     -2.63900  -0.13978 227.22265  2      287
siesta:     -0.40557  -2.60678 227.22265  2      288
siesta:      0.59030   0.53175 234.51322  1      289
siesta:      2.63900   0.13978 234.51322  2      290
siesta:      0.40557   2.60678 234.51322  2      291
siesta:     -0.59030  -0.53175 232.08303  1      292
siesta:     -2.63900  -0.13978 232.08303  2      293
siesta:     -0.40557  -2.60678 232.08303  2      294
siesta:      0.59030   0.53175 239.37359  1      295
siesta:      2.63900   0.13978 239.37359  2      296
siesta:      0.40557   2.60678 239.37359  2      297
siesta:     -0.59030  -0.53175 236.94340  1      298
siesta:     -2.63900  -0.13978 236.94340  2      299
siesta:     -0.40557  -2.60678 236.94340  2      300
siesta:      0.59030   0.53175 244.23397  1      301
siesta:      2.63900   0.13978 244.23397  2      302
siesta:      0.40557   2.60678 244.23397  2      303
siesta:     -0.59030  -0.53175 241.80378  1      304
siesta:     -2.63900  -0.13978 241.80378  2      305
siesta:     -0.40557  -2.60678 241.80378  2      306
siesta:      0.59030   0.53175 249.09435  1      307
siesta:      2.63900   0.13978 249.09435  2      308
siesta:      0.40557   2.60678 249.09435  2      309
siesta:     -0.59030  -0.53175 246.66416  1      310
siesta:     -2.63900  -0.13978 246.66416  2      311
siesta:     -0.40557  -2.60678 246.66416  2      312
siesta:      0.59030   0.53175 253.95473  1      313
siesta:      2.63900   0.13978 253.95473  2      314
siesta:      0.40557   2.60678 253.95473  2      315
siesta:     -0.59030  -0.53175 251.52454  1      316
siesta:     -2.63900  -0.13978 251.52454  2      317
siesta:     -0.40557  -2.60678 251.52454  2      318
siesta:      0.59030   0.53175 258.81510  1      319
siesta:      2.63900   0.13978 258.81510  2      320
siesta:      0.40557   2.60678 258.81510  2      321
siesta:     -0.59030  -0.53175 256.38491  1      322
siesta:     -2.63900  -0.13978 256.38491  2      323
siesta:     -0.40557  -2.60678 256.38491  2      324
siesta:      0.59030   0.53175 263.67548  1      325
siesta:      2.63900   0.13978 263.67548  2      326
siesta:      0.40557   2.60678 263.67548  2      327
siesta:     -0.59030  -0.53175 261.24529  1      328
siesta:     -2.63900  -0.13978 261.24529  2      329
siesta:     -0.40557  -2.60678 261.24529  2      330
siesta:      0.59030   0.53175 268.53586  1      331
siesta:      2.63900   0.13978 268.53586  2      332
siesta:      0.40557   2.60678 268.53586  2      333
siesta:     -0.59030  -0.53175 266.10567  1      334
siesta:     -2.63900  -0.13978 266.10567  2      335
siesta:     -0.40557  -2.60678 266.10567  2      336
siesta:      0.59030   0.53175 273.39624  1      337
siesta:      2.63900   0.13978 273.39624  2      338
siesta:      0.40557   2.60678 273.39624  2      339
siesta:     -0.59030  -0.53175 270.96605  1      340
siesta:     -2.63900  -0.13978 270.96605  2      341
siesta:     -0.40557  -2.60678 270.96605  2      342
siesta:      0.59030   0.53175 278.25661  1      343
siesta:      2.63900   0.13978 278.25661  2      344
siesta:      0.40557   2.60678 278.25661  2      345
siesta:     -0.59030  -0.53175 275.82642  1      346
siesta:     -2.63900  -0.13978 275.82642  2      347
siesta:     -0.40557  -2.60678 275.82642  2      348
siesta:      0.59030   0.53175 283.11699  1      349
siesta:      2.63900   0.13978 283.11699  2      350
siesta:      0.40557   2.60678 283.11699  2      351
siesta:     -0.59030  -0.53175 280.68680  1      352
siesta:     -2.63900  -0.13978 280.68680  2      353
siesta:     -0.40557  -2.60678 280.68680  2      354
siesta:      0.59030   0.53175 287.97737  1      355
siesta:      2.63900   0.13978 287.97737  2      356
siesta:      0.40557   2.60678 287.97737  2      357
siesta:     -0.59030  -0.53175 285.54718  1      358
siesta:     -2.63900  -0.13978 285.54718  2      359
siesta:     -0.40557  -2.60678 285.54718  2      360
siesta:      0.59030   0.53175 292.83775  1      361
siesta:      2.63900   0.13978 292.83775  2      362
siesta:      0.40557   2.60678 292.83775  2      363
siesta:     -0.59030  -0.53175 290.40756  1      364
siesta:     -2.63900  -0.13978 290.40756  2      365
siesta:     -0.40557  -2.60678 290.40756  2      366
siesta:      0.59030   0.53175 297.69812  1      367
siesta:      2.63900   0.13978 297.69812  2      368
siesta:      0.40557   2.60678 297.69812  2      369
siesta:     -0.59030  -0.53175 295.26793  1      370
siesta:     -2.63900  -0.13978 295.26793  2      371
siesta:     -0.40557  -2.60678 295.26793  2      372
siesta:      0.59030   0.53175 302.55850  1      373
siesta:      2.63900   0.13978 302.55850  2      374
siesta:      0.40557   2.60678 302.55850  2      375
siesta:     -0.59030  -0.53175 300.12831  1      376
siesta:     -2.63900  -0.13978 300.12831  2      377
siesta:     -0.40557  -2.60678 300.12831  2      378
siesta:      0.59030   0.53175 307.41888  1      379
siesta:      2.63900   0.13978 307.41888  2      380
siesta:      0.40557   2.60678 307.41888  2      381
siesta:     -0.59030  -0.53175 304.98869  1      382
siesta:     -2.63900  -0.13978 304.98869  2      383
siesta:     -0.40557  -2.60678 304.98869  2      384

siesta: System type = chain     

initatomlists: Number of atoms, orbitals, and projectors:    384  2944  4352

siesta: ******************** Simulation parameters ****************************
siesta:
siesta: The following are some of the parameters of the simulation.
siesta: A complete list of the parameters used, including default values,
siesta: can be found in file out.fdf
siesta:
redata: Non-Collinear-spin run           =     F
redata: SpinPolarized (Up/Down) run      =     F
redata: Number of spin components        =     1
redata: Long output                      =     F
redata: Number of Atomic Species         =        2
redata: Charge density info will appear in .RHO file
redata: Write Mulliken Pop.              =     NO
redata: Mesh Cutoff                      =   100.0000  Ry
redata: Net charge of the system         =     0.0000 |e|
redata: Min. number of SCF Iter          =        0
redata: Max. number of SCF Iter          =       50
redata: Mix DM or H after convergence    =     F
redata: Recompute H after scf cycle      =     F
redata: Performing Pulay mixing using    =     3 iterations
redata: Mix DM in first SCF step ?       =     F
redata: Write Pulay info on disk?        =     F
redata: Discard 1st Pulay DM after  kick =     F
redata: New DM Mixing Weight             =     0.3000
redata: New DM Occupancy tolerance       = 0.000000000001
redata: No kicks to SCF
redata: DM Mixing Weight for Kicks       =     0.5000
redata: DM Tolerance for SCF             =     0.000100
redata: Require (free) Energy convergence in SCF =     F
redata: DM (free)Energy tolerance for SCF =     0.000010 eV
redata: Require Harris convergence for SCF =     F
redata: DM Harris energy tolerance for SCF =     0.000010 eV
redata: Using Saved Data (generic)   =     F
redata: Use continuation files for DM    =     F
redata: Neglect nonoverlap interactions  =     F
redata: Method of Calculation            =     QETSc
redata: Fix the spin of the system       =     F
redata: Dynamics option                  =     Single-point calculation
redata: ***********************************************************************
Total number of electrons:   768.000000
Total ionic charge:   768.000000

* ProcessorY, Blocksize:    4  92


* Orbital distribution balance (max,min):    92    92

 Kpoints in:  1 . Kpoints trimmed:  1

siesta: k-grid: Number of k-points =     1
siesta: k-grid: Cutoff (effective) =    10.000 Ang
siesta: k-grid: Supercell and displacements
siesta: k-grid:    1   0   0      0.000
siesta: k-grid:    0   1   0      0.000
siesta: k-grid:    0   0   1      0.000

                     ====================================
                        Single-point calculation
                     ====================================

outcell: Unit cell vectors (Ang):
       20.000000    0.000000    0.000000
        0.000000   20.000000    0.000000
        0.000000    0.000000  164.608000

outcell: Cell vector modules (Ang)   :   20.000000   20.000000  164.608000
outcell: Cell angles (23,13,12) (deg):     90.0000     90.0000     90.0000
outcell: Cell volume (Ang**3)        :  65843.2000
New_DM. Step:     1
Initializing Density Matrix...
New grid distribution:   1
           1       1:   64    1:   16    1:   63
           2       1:   64    1:   16   64:  126
           3       1:   64    1:   16  127:  189
           4       1:   64    1:   16  190:  252
           5       1:   64    1:   16  253:  314
           6       1:   64    1:   16  315:  376
           7       1:   64    1:   16  377:  438
           8       1:   64    1:   16  439:  500
           9       1:   64   17:   32    1:   63
          10       1:   64   17:   32   64:  126
          11       1:   64   17:   32  127:  189
          12       1:   64   17:   32  190:  252
          13       1:   64   17:   32  253:  314
          14       1:   64   17:   32  315:  376
          15       1:   64   17:   32  377:  438
          16       1:   64   17:   32  439:  500
          17       1:   64   33:   48    1:   63
          18       1:   64   33:   48   64:  126
          19       1:   64   33:   48  127:  189
          20       1:   64   33:   48  190:  252
          21       1:   64   33:   48  253:  314
          22       1:   64   33:   48  315:  376
          23       1:   64   33:   48  377:  438
          24       1:   64   33:   48  439:  500
          25       1:   64   49:   64    1:   63
          26       1:   64   49:   64   64:  126
          27       1:   64   49:   64  127:  189
          28       1:   64   49:   64  190:  252
          29       1:   64   49:   64  253:  314
          30       1:   64   49:   64  315:  376
          31       1:   64   49:   64  377:  438
          32       1:   64   49:   64  439:  500

InitMesh: MESH =   128 x   128 x  1000 =    16384000
InitMesh: (bp) =    64 x    64 x   500 =     2048000
InitMesh: Mesh cutoff (required, used) =   100.000   102.000 Ry
ExtMesh (bp) on 0 =   100 x    52 x    95 =      494000
New grid distribution:   2
           1       8:   64    1:    7    1:   63
           2       8:   64    1:    7  439:  500
           3       1:    7    1:    7  376:  438
           4       8:   64    8:   64  189:  250
           5       1:    7    1:    7  251:  313
           6       8:   64    1:    7  314:  375
           7       8:   64    1:    7  376:  438
           8       8:   64    8:   64  439:  500
           9       1:    7    8:   64    1:   63
          10       8:   64    1:    7   64:  125
          11       8:   64    8:   64  126:  188
          12       1:    7    1:    7  126:  188
          13       1:    7    8:   64  251:  313
          14       1:    7    8:   64  314:  375
          15       8:   64    8:   64  376:  438
          16       1:    7    1:    7    1:   63
          17       8:   64    8:   64    1:   63
          18       8:   64    1:    7  126:  188
          19       1:    7    8:   64   64:  125
          20       1:    7    1:    7   64:  125
          21       8:   64    8:   64  251:  313
          22       8:   64    1:    7  251:  313
          23       8:   64    1:    7  189:  250
          24       1:    7    1:    7  189:  250
          25       1:    7    1:    7  314:  375
          26       8:   64    8:   64   64:  125
          27       1:    7    8:   64  126:  188
          28       1:    7    8:   64  189:  250
          29       1:    7    1:    7  439:  500
          30       8:   64    8:   64  314:  375
          31       1:    7    8:   64  376:  438
          32       1:    7    8:   64  439:  500
New grid distribution:   3
           1      12:   64    1:   12   63:  125
           2       1:   36   13:   64   63:  125
           3      39:   64   13:   64  126:  187
           4       1:   11    1:   12  188:  250
           5      12:   64    1:   12  313:  375
           6       1:   36   13:   64  313:  375
           7      39:   64   13:   64  376:  437
           8       1:   11    1:   12   63:  125
           9       1:   38   13:   64    1:   62
          10      12:   64    1:   12  438:  500
          11       1:   11    1:   12  313:  375
          12      37:   64   13:   64  188:  250
          13       1:   38   13:   64  251:  312
          14      37:   64   13:   64  313:  375
          15      12:   64    1:   12  188:  250
          16       1:   11    1:   12  438:  500
          17      12:   64    1:   12  376:  437
          18      37:   64   13:   64   63:  125
          19       1:   38   13:   64  126:  187
          20       1:   11    1:   12  126:  187
          21      12:   64    1:   12    1:   62
          22       1:   11    1:   12    1:   62
          23       1:   38   13:   64  376:  437
          24      37:   64   13:   64  438:  500
          25      39:   64   13:   64    1:   62
          26      12:   64    1:   12  251:  312
          27       1:   11    1:   12  376:  437
          28       1:   36   13:   64  188:  250
          29      39:   64   13:   64  251:  312
          30      12:   64    1:   12  126:  187
          31       1:   11    1:   12  251:  312
          32       1:   36   13:   64  438:  500
Setting up quadratic distribution...
ExtMesh (bp) on 0 =    93 x    43 x    95 =      379905
PhiOnMesh: Number of (b)points on node 0 =                25137
PhiOnMesh: nlist on node 0 =               196462
QETSC: Last update           = Dec 15, 2016
QETSC: Number of ranks       =          32
QETSC: Number of slices      =          32
QETSC: Number of ranks/slice =           1
QETSC: Number of evals/slice =  12.00
QETSC: Number of req. evals  =         384
QETSC: Number of rows (all)  =        2944
QETSC: Number of rows (max)  =          92
QETSC: Number of rows (min)  =          92
QETSC: Density option        =           0
QETSC: Bin type given        =           7
QETSC: Inertia type          =           1
QETSC: Infinity type         =           2
QETSC: Write option          =           1
QETSC: Bin buffer given      =   0.10
QETSC: Diff thresh           =   0.02
QETSC: Number of nonzeros    =      609408
QETSC: Nonzero % (all)       =   7.03
QETSC: Nonzero % (max)       =   7.03
QETSC: Nonzero % (min)       =   7.03
 QETSC: Shifts, inertias         =
      -INF     0
    -2.300     0
    -2.226     0
    -2.152     0
    -2.077     0
    -2.003     0
    -1.929     0
    -1.855     0
    -1.781     0
    -1.706     0
    -1.632    25
    -1.558    41
    -1.484    53
    -1.410    63
    -1.335    73
    -1.261    83
    -1.187   128
    -1.113   128
    -1.039   151
    -0.965   189
    -0.890   229
    -0.816   269
    -0.742   356
    -0.668   384
    -0.594   384
    -0.519   384
    -0.445   384
    -0.371   384
    -0.297   384
    -0.223   384
    -0.148   384
    -0.074   384
     0.000   384
 QETSc: Custers,iter,crange,npcmax,trial 1 0.313825538524251310E-01 22 35
-1.6767741935483869E+00
-1.6441290322580644E+00
-1.6137096774193547E+00
-1.5812499999999998E+00
-1.5456989247311825E+00
-1.5086021505376341E+00
-1.4764516129032257E+00
-1.4393548387096773E+00
-1.4022580645161291E+00
-1.3651612903225807E+00
-1.3280645161290323E+00
-1.2909677419354839E+00
-1.2530465949820788E+00
-1.2200716845878135E+00
-1.1887455197132615E+00
-1.0838709677419354E+00
-1.0516129032258064E+00
-1.0172325976230898E+00
-9.8404074702886235E-01
-9.5153225806451602E-01
-9.1999999999999993E-01
-8.8846774193548383E-01
-8.5693548387096763E-01
-8.2540322580645153E-01
-8.0163144234334438E-01
-7.8286985539488307E-01
-7.6410826844642188E-01
-7.4534668149796057E-01
-7.1543778801843305E-01
-6.8364055299539173E-01
-6.7304147465437780E-01
 QETSC: Bins             =
                   -INF
-1.7064516129032257E+00
-1.6702451612903224E+00
-1.6380451612903224E+00
-1.6072177419354836E+00
-1.5741397849462364E+00
-1.5382795698924729E+00
-1.5021720430107524E+00
-1.4690322580645161E+00
-1.4319354838709677E+00
-1.3948387096774195E+00
-1.3577419354838711E+00
-1.3206451612903227E+00
-1.2833835125448030E+00
-1.2464516129032257E+00
-1.2138064516129030E+00
-1.1677706093189963E+00
-1.0774193548387097E+00
-1.0447368421052630E+00
-1.0105942275042443E+00
-9.7753904923599311E-01
-9.4522580645161280E-01
-9.1369354838709671E-01
-8.8216129032258062E-01
-8.5062903225806441E-01
-8.2064886911383006E-01
-7.9787912495365210E-01
-7.7911753800519079E-01
-7.6035595105672960E-01
-7.3936490280205502E-01
-7.0907834101382483E-01
-6.8152073732718899E-01
-6.6774193548387095E-01
QETSC: Started iter            1
QETSC: Bin type used         =           7
QETSC: Buffer used           =   0.0000000000000000E+00
QETSC: EPS interval          =      -INF,    -0.668
QETSC: Inertia type          =           1
SLEPc: EPSSolve time = 30 1.897e-06
SLEPc: EPSSolve time = 0 2.188e-06
SLEPc: EPSSolve time = 16 1.687e-06
SLEPc: EPSSolve time = 15 1.985e-06
SLEPc: EPSSolve time = 31 1.906e-06
SLEPc: EPSSolve time = 12 2.451e+00
SLEPc: EPSSolve time = 10 2.471e+00
SLEPc: EPSSolve time = 8 2.486e+00
SLEPc: EPSSolve time = 7 2.487e+00
SLEPc: EPSSolve time = 6 2.506e+00
SLEPc: EPSSolve time = 9 2.507e+00
SLEPc: EPSSolve time = 5 2.540e+00
SLEPc: EPSSolve time = 11 2.541e+00
SLEPc: EPSSolve time = 3 2.606e+00
SLEPc: EPSSolve time = 4 2.636e+00
SLEPc: EPSSolve time = 2 2.677e+00
SLEPc: EPSSolve time = 29 2.679e+00
SLEPc: EPSSolve time = 1 2.705e+00
SLEPc: EPSSolve time = 17 2.897e+00
SLEPc: EPSSolve time = 13 3.332e+00
SLEPc: EPSSolve time = 23 3.507e+00
SLEPc: EPSSolve time = 21 3.552e+00
SLEPc: EPSSolve time = 24 3.605e+00
SLEPc: EPSSolve time = 26 3.605e+00
SLEPc: EPSSolve time = 22 3.626e+00
SLEPc: EPSSolve time = 18 3.669e+00
SLEPc: EPSSolve time = 25 3.698e+00
SLEPc: EPSSolve time = 19 3.731e+00
SLEPc: EPSSolve time = 20 4.255e+00
SLEPc: EPSSolve time = 14 4.280e+00
SLEPc: EPSSolve time = 27 5.006e+00
SLEPc: EPSSolve time = 28 6.901e+00
 QETSC: Eigenvalues         =
-1.6792898009683785E+00
-1.6789996922250234E+00
-1.6789996922250212E+00
-1.6781294751270788E+00
-1.6781294751270763E+00
-1.6766794797057349E+00
-1.6766794797057329E+00
-1.6746505299675298E+00
-1.6746499993000445E+00
-1.6720426298959861E+00
-1.6720426298959838E+00
-1.6688576336679239E+00
-1.6688576336679231E+00
-1.6650966130398834E+00
-1.6650966130398823E+00
-1.6607614371024084E+00
-1.6607609794869693E+00
-1.6558533903325974E+00
-1.6558533903325967E+00
-1.6503754914024336E+00
-1.6503754914024324E+00
-1.6443302401572808E+00
-1.6443302401572764E+00
-1.6377295940554957E+00
-1.6377119801211217E+00
-1.6305507782508757E+00
-1.6305507782508710E+00
-1.6228243859141687E+00
-1.6228243859141676E+00
-1.6145463468382308E+00
-1.6145463468382295E+00
-1.6057238485298515E+00
-1.6057202689753529E+00
-1.5963576464339915E+00
-1.5963576464339850E+00
-1.5864600543452141E+00
-1.5864600543452128E+00
-1.5760371562121056E+00
-1.5760371562120987E+00
-1.5650980815262401E+00
-1.5650976947079680E+00
-1.5536524078177196E+00
-1.5536524078177145E+00
-1.5417122890804167E+00
-1.5417122890804145E+00
-1.5292907595560872E+00
-1.5292907595560818E+00
-1.5164053129189887E+00
-1.5164006733068565E+00
-1.5030664732753714E+00
-1.5030664732753680E+00
-1.4893014430983464E+00
-1.4893014430983387E+00
-1.4751314672196461E+00
-1.4751314672196414E+00
-1.4605859526477907E+00
-1.4605823237561129E+00
-1.4456919638164307E+00
-1.4456919638164296E+00
-1.4304934842994326E+00
-1.4304934842994257E+00
-1.4150346797642117E+00
-1.4150346797642028E+00
-1.3993708446340904E+00
-1.3993706328007953E+00
-1.3835682609316895E+00
-1.3835682609316882E+00
-1.3677079616496597E+00
-1.3677079616496541E+00
-1.3518879007374938E+00
-1.3518879007374900E+00
-1.3362274355465495E+00
-1.3362268698821063E+00
-1.3208696050386519E+00
-1.3208696050386468E+00
-1.3059871485162731E+00
-1.3059871485162655E+00
-1.2917808422031047E+00
-1.2917808422031010E+00
-1.2784800720487743E+00
-1.2784754197942960E+00
-1.2663203998453407E+00
-1.2663203998453239E+00
-1.2555463253085504E+00
-1.2555463253085417E+00
-1.2470904146233490E+00
-1.2469283454191329E+00
-1.2469283454191316E+00
-1.2464447289491403E+00
-1.2464447289491374E+00
-1.2463579608698625E+00
-1.2463579608698585E+00
-1.2456472154882097E+00
-1.2456472154882057E+00
-1.2445511329937855E+00
-1.2445490155310346E+00
-1.2431719955249110E+00
-1.2431719955249074E+00
-1.2415397679311804E+00
-1.2415397679311768E+00
-1.2396878027010556E+00
-1.2396878027010505E+00
-1.2388873551662720E+00
-1.2388868415231373E+00
-1.2376603580876619E+00
-1.2376595314610439E+00
-1.2355113766498909E+00
-1.2355113766498838E+00
-1.2333110550986670E+00
-1.2333110550986590E+00
-1.2331706658876251E+00
-1.2331706658876220E+00
-1.2311447328227501E+00
-1.2311447328227427E+00
-1.2291398955564812E+00
-1.2291398955564772E+00
-1.2291355728970506E+00
-1.2291010883132214E+00
-1.2273622232059167E+00
-1.2273622232059105E+00
-1.2266368392047915E+00
-1.2266368392047857E+00
-1.2260345857478883E+00
-1.2260345857478803E+00
-1.2254460204095781E+00
-1.2254438109528072E+00
-1.2253232816404291E+00
-1.2253232816404196E+00
-1.0713228956674468E+00
-1.0710499858299964E+00
-1.0710499858299503E+00
-1.0702317714422867E+00
-1.0702317714422034E+00
-1.0688698019162723E+00
-1.0688698019162177E+00
-1.0669667197650712E+00
-1.0669666263856754E+00
-1.0645260473966458E+00
-1.0645260473966369E+00
-1.0615526824108290E+00
-1.0615526824108199E+00
-1.0580524673305054E+00
-1.0580524673304612E+00
-1.0540327137390693E+00
-1.0540322222397687E+00
-1.0495009803630617E+00
-1.0495009803630573E+00
-1.0444675933961496E+00
-1.0444675933961456E+00
-1.0389432685610558E+00
-1.0389432685610522E+00
-1.0329674555827510E+00
-1.0329131096867521E+00
-1.0264726340792421E+00
-1.0264726340792378E+00
-1.0195559391056275E+00
-1.0195559391056241E+00
-1.0122073346969092E+00
-1.0122073346969038E+00
-1.0044460043779433E+00
-1.0044458070892011E+00
-9.9629266224551138E-01
-9.9629266224550883E-01
-9.8777067184118816E-01
-9.8777067184118128E-01
-9.8740052528638378E-01
-9.8740052528636812E-01
-9.8643241425744965E-01
-9.8643241425744599E-01
-9.8637206098429819E-01
-9.8636866725050132E-01
-9.8357562706215518E-01
-9.8357562706213431E-01
-9.8327397795441918E-01
-9.8327397795440741E-01
-9.7926084190886609E-01
-9.7926084190885021E-01
-9.7890529484444655E-01
-9.7890529484444055E-01
-9.7781029778969952E-01
-9.7780937258140777E-01
-9.7366042164208433E-01
-9.7366042164207189E-01
-9.7002753701653577E-01
-9.7002753701652167E-01
-9.6972320410336010E-01
-9.6972268769345027E-01
-9.6698897826488794E-01
-9.6698654261686590E-01
-9.6025527154819523E-01
-9.6025527154819013E-01
-9.6003046783954482E-01
-9.6003046783953494E-01
-9.5943173734620590E-01
-9.5943173734619913E-01
-9.5115754962969268E-01
-9.5115754962967880E-01
-9.5053350911699253E-01
-9.5053350911698664E-01
-9.4801813545949021E-01
-9.4801813545947966E-01
-9.4230962176934874E-01
-9.4230962176933131E-01
-9.4059267006837921E-01
-9.4059267006837177E-01
-9.3426065352426979E-01
-9.3426041173873942E-01
-9.3301559336652562E-01
-9.3301458918303082E-01
-9.3047065682152841E-01
-9.3046975926727948E-01
-9.2338717302714091E-01
-9.2338717302713480E-01
-9.2020615535250139E-01
-9.2020615535249684E-01
-9.1906379254831194E-01
-9.1906379254830584E-01
-9.1352797951742348E-01
-9.1352797951741838E-01
-9.0984309357169202E-01
-9.0984309357168514E-01
-9.0353085306281444E-01
-9.0353085306280634E-01
-9.0274421172676322E-01
-9.0274421172675823E-01
-8.9942606175319206E-01
-8.9942606175318829E-01
-8.9348463382115828E-01
-8.9347944532050916E-01
-8.8900589749405445E-01
-8.8899887660551280E-01
-8.8561291607276593E-01
-8.8561291607276382E-01
-8.8346171752138603E-01
-8.8346171752137714E-01
-8.7862143536066240E-01
-8.7862143536065618E-01
-8.7354543096126624E-01
-8.7354543096125492E-01
-8.6833425672704645E-01
-8.6833425672704101E-01
-8.6804690445358823E-01
-8.6789137554837370E-01
-8.6380305140262859E-01
-8.6380305140261937E-01
-8.5819311968826695E-01
-8.5819311968826373E-01
-8.5430680711531692E-01
-8.5429329425999845E-01
-8.5010324537695070E-01
-8.5010324537693915E-01
-8.4825098361637818E-01
-8.4825087536717847E-01
-8.4509662912185513E-01
-8.4509662912184869E-01
-8.3856051981093138E-01
-8.3856051981091240E-01
-8.3624734800095901E-01
-8.3624734800095124E-01
-8.3229911840558135E-01
-8.3229911840556803E-01
-8.2917381577907945E-01
-8.2917381577907179E-01
-8.2780051029692103E-01
-8.2780051029692026E-01
-8.2014091292780544E-01
-8.2014091292779945E-01
-8.1979787362883172E-01
-8.1979723832529405E-01
-8.1483981700254071E-01
-8.1483981700252728E-01
-8.1227241803305705E-01
-8.1227241803304662E-01
-8.1151518046843474E-01
-8.1150285950138545E-01
-8.0525104093305688E-01
-8.0525104093304278E-01
-8.0332142504601878E-01
-8.0332142504601511E-01
-7.9875106300206256E-01
-7.9875106300205434E-01
-7.9801350807105675E-01
-7.9801321300489825E-01
-7.9561640395127786E-01
-7.9561640395127220E-01
-7.9278399810981093E-01
-7.9277948573019141E-01
-7.8842620048549028E-01
-7.8842620048548373E-01
-7.8734415773964506E-01
-7.8734415773964206E-01
-7.8243170068144252E-01
-7.8243170068143530E-01
-7.8211568233366779E-01
-7.8211568233366480E-01
-7.8177966912194130E-01
-7.8177261011081178E-01
-7.7803085705939190E-01
-7.7803085705938146E-01
-7.7568391594861574E-01
-7.7568391594861064E-01
-7.7416375497130563E-01
-7.7407952175655192E-01
-7.7068003486344738E-01
-7.7068003486343617E-01
-7.7015911279338090E-01
-7.7015911279337834E-01
-7.6767858036621572E-01
-7.6767858036620829E-01
-7.6745110280266871E-01
-7.6745110280266104E-01
-7.6520298288904420E-01
-7.6520298288904209E-01
-7.6508623200017201E-01
-7.6508623200016646E-01
-7.6287234945006299E-01
-7.6287197653911298E-01
-7.6100516989475919E-01
-7.6100516989475120E-01
-7.6080881789355714E-01
-7.6080831886212641E-01
-7.5945541382472292E-01
-7.5945541382471571E-01
-7.5819525951125011E-01
-7.5819525951124422E-01
-7.5720037474314972E-01
-7.5719955580743137E-01
-7.5696100996229854E-01
-7.5696100996229387E-01
-7.5644861223805215E-01
-7.5644861223804971E-01
-7.5592428903282016E-01
-7.5592428903281794E-01
-7.5561469461538888E-01
-7.5561469461538733E-01
-7.5551233467999757E-01
-7.5432972187097669E-01
-7.5432972187096881E-01
-7.5363839845206593E-01
-7.5363839845206171E-01
-7.5081232335703008E-01
-7.5081232335702741E-01
-7.4845001194273764E-01
-7.4844835303855417E-01
-7.4651122294940975E-01
-7.4651122294940842E-01
-7.4495779040358112E-01
-7.4495779040357801E-01
-7.4374691226461298E-01
-7.4374691226461009E-01
-7.4305858074300390E-01
-7.4305801850392683E-01
-7.4289389472808431E-01
-7.4276695911794144E-01
-7.4216931060170332E-01
-7.4216931060170166E-01
-7.4172819349613583E-01
-7.4172524935733541E-01
-7.4172524935733353E-01
-7.4171036453526684E-01
-7.4171036453526495E-01
-7.4165906361812306E-01
-7.4165906361812095E-01
-7.4158086979937887E-01
-7.4158086979937687E-01
-7.4148721195146550E-01
-7.4148615763349246E-01
-7.4145346341216423E-01
-7.4145346341216301E-01
-7.4139173159233229E-01
-7.4139173159233063E-01
-7.4131738596706209E-01
-7.4131661462699683E-01
-7.4131545045257974E-01
-7.4131545045257730E-01
-7.4128138157038359E-01
-7.4128138157038115E-01
-7.3392806673236788E-01
-7.3392806673236155E-01
-7.2719724255040652E-01
-7.2719724255040319E-01
-7.2307034828068506E-01
-7.2307034828068284E-01
-7.2167947510274200E-01
QETSC: Iter time (min)       =     1  10.35
QETSC: Iter time (max)       =     1  10.35
QETSC: Iter time (avg)       =     1  10.35
QETSC: Num. of conv. evals   =     1         384
QETSC: Eigenvalue (1)        =     1  -1.6792898009683785E+00
QETSC: Eigenvalue (nocc)     =     1  -7.2167947510274200E-01
QETSC: Max differrence       =     1   1.6792898009683785E+00
QETSC: Safe iteration        =     1      F
QETSC: Finished iter         =           1
 *****************************************************************
QETSC: SCF iter time=  10.480

siesta: Program's energy decomposition (eV):
siesta: Ebs     =    -10972.813260
siesta: Eions   =     37515.017267
siesta: Ena     =      8051.360606
siesta: Ekin    =     15139.467002
siesta: Enl     =     -1077.770530
siesta: DEna    =         0.000018
siesta: DUscf   =         0.000000
siesta: DUext   =         0.000000
siesta: Exc     =     -8032.963215
siesta: eta*DQ  =         0.000000
siesta: Emadel  =         0.000000
siesta: Emeta   =         0.000000
siesta: Emolmec =         0.000000
siesta: Ekinion =         0.000000
siesta: Eharris =    -23995.195586
siesta: Etot    =    -23434.923385
siesta: FreeEng =    -23434.923385
timer: Routine,Calls,Time,% =    IterSCF     1      14.820  42.61
 QETSC: Shifts, inertias         =
      -INF     0
    -2.300     0
    -2.226     0
    -2.152     0
    -2.077     0
    -2.003     0
    -1.929     0
    -1.855     0
    -1.781     0
    -1.706     0
    -1.632     0
    -1.558     0
    -1.484     0
    -1.410     0
    -1.335     0
    -1.261    13
    -1.187    35
    -1.113    47
    -1.039    57
    -0.965    67
    -0.890    77
    -0.816   128
    -0.742   128
    -0.668   157
    -0.594   173
    -0.519   223
    -0.445   261
    -0.371   365
    -0.297   375
    -0.223   384
    -0.148   384
    -0.074   384
     0.000   384
 QETSc: Custers,iter,crange,npcmax,trial 2 0.355411030176899095E-01 24 4
-1.3012406947890818E+00
-1.2612903225806451E+00
-1.2241935483870967E+00
-1.1870967741935483E+00
-1.1499999999999999E+00
-1.1129032258064515E+00
-1.0758064516129031E+00
-1.0387096774193547E+00
-1.0016129032258063E+00
-9.6451612903225792E-01
-9.2741935483870952E-01
-8.8450347881087910E-01
-8.4958886780518650E-01
-8.1758380771663497E-01
-7.0867630700778639E-01
-6.7285873192436041E-01
-6.3528225806451610E-01
-5.9818548387096770E-01
-5.5941935483870964E-01
-5.2380645161290318E-01
-4.8811544991511030E-01
-4.5101867572156190E-01
-4.3017990074441681E-01
-4.1305831265508680E-01
-3.9593672456575674E-01
-3.7881513647642673E-01
-3.4870967741935477E-01
-3.1161290322580643E-01
-2.7204301075268816E-01
-2.3906810035842291E-01
-2.2258064516129028E-01
 QETSC: Bins             =
                   -INF
-1.3354838709677419E+00
-1.2932506203473944E+00
-1.2538709677419355E+00
-1.2167741935483871E+00
-1.1796774193548387E+00
-1.1425806451612903E+00
-1.1054838709677419E+00
-1.0683870967741935E+00
-1.0312903225806451E+00
-9.9419354838709662E-01
-9.5709677419354822E-01
-9.1883617963314346E-01
-8.7752055660974060E-01
-8.4318785578747624E-01
-7.9580230757486525E-01
-7.0151279199110117E-01
-6.6534343715239153E-01
-6.2786290322580640E-01
-5.9043225806451605E-01
-5.5229677419354839E-01
-5.1666825127334459E-01
-4.8069609507640060E-01
-4.4685092072613286E-01
-4.2675558312655082E-01
-4.0963399503722081E-01
-3.9251240694789075E-01
-3.7279404466501231E-01
-3.4129032258064512E-01
-3.0369892473118276E-01
-2.6544802867383510E-01
-2.3577060931899638E-01
-2.2258064516129028E-01
QETSC: Started iter            2
QETSC: Bin type used         =           7
QETSC: Buffer used           =   0.0000000000000000E+00
QETSC: EPS interval          =      -INF,    -0.223
QETSC: Inertia type          =           1
SLEPc: EPSSolve time = 1 2.084e-06
SLEPc: EPSSolve time = 31 2.019e-06
SLEPc: EPSSolve time = 0 1.439e-06
SLEPc: EPSSolve time = 9 2.437e+00
SLEPc: EPSSolve time = 10 2.459e+00
SLEPc: EPSSolve time = 7 2.464e+00
SLEPc: EPSSolve time = 26 2.497e+00
SLEPc: EPSSolve time = 8 2.509e+00
SLEPc: EPSSolve time = 6 2.510e+00
SLEPc: EPSSolve time = 11 2.524e+00
SLEPc: EPSSolve time = 30 2.530e+00
SLEPc: EPSSolve time = 27 2.541e+00
SLEPc: EPSSolve time = 4 2.542e+00
SLEPc: EPSSolve time = 28 2.545e+00
SLEPc: EPSSolve time = 5 2.597e+00
SLEPc: EPSSolve time = 3 2.618e+00
SLEPc: EPSSolve time = 16 2.633e+00
SLEPc: EPSSolve time = 17 2.641e+00
SLEPc: EPSSolve time = 29 2.644e+00
SLEPc: EPSSolve time = 15 2.799e+00
SLEPc: EPSSolve time = 2 2.826e+00
SLEPc: EPSSolve time = 12 3.288e+00
SLEPc: EPSSolve time = 18 3.399e+00
SLEPc: EPSSolve time = 20 3.649e+00
SLEPc: EPSSolve time = 14 3.739e+00
SLEPc: EPSSolve time = 25 4.006e+00
SLEPc: EPSSolve time = 21 4.266e+00
SLEPc: EPSSolve time = 13 4.430e+00
SLEPc: EPSSolve time = 19 4.513e+00
SLEPc: EPSSolve time = 23 7.362e+00
SLEPc: EPSSolve time = 24 7.865e+00
SLEPc: EPSSolve time = 22 1.488e+01
 QETSC: Eigenvalues         =
-1.2740833956465152E+00
-1.2737830711456277E+00
-1.2737830710996940E+00
-1.2728822067990007E+00
-1.2728822067805641E+00
-1.2713811338705923E+00
-1.2713811338619836E+00
-1.2692810696383703E+00
-1.2692797616735483E+00
-1.2665808647173065E+00
-1.2665808647162637E+00
-1.2632835650019194E+00
-1.2632835650013730E+00
-1.2593898990823302E+00
-1.2593898990819477E+00
-1.2549019477428596E+00
-1.2549012135206856E+00
-1.2498206905186509E+00
-1.2498206905185063E+00
-1.2441497172622538E+00
-1.2441497172612470E+00
-1.2378916032296718E+00
-1.2378916032287943E+00
-1.2310614118712560E+00
-1.2310381336282641E+00
-1.2236282393365727E+00
-1.2236282393362239E+00
-1.2156316373782190E+00
-1.2156316373781697E+00
-1.2070652632724024E+00
-1.2070652632723080E+00
-1.1979374945854371E+00
-1.1979329270039627E+00
-1.1882484503965718E+00
-1.1882484503965154E+00
-1.1780129482223254E+00
-1.1780129482222657E+00
-1.1672378077171954E+00
-1.1672378077171059E+00
-1.1559339920308500E+00
-1.1559328957303732E+00
-1.1441117941558288E+00
-1.1441117941558141E+00
-1.1317865792138548E+00
-1.1317865792137700E+00
-1.1189736269936488E+00
-1.1189736269936061E+00
-1.1057002572266710E+00
-1.1056822825234232E+00
-1.0919608676636094E+00
-1.0919608676635737E+00
-1.0778074364787895E+00
-1.0778074364787609E+00
-1.0632604472729492E+00
-1.0632604472729115E+00
-1.0483567735696739E+00
-1.0483529625312122E+00
-1.0331324629048968E+00
-1.0331324629048715E+00
-1.0176434516652668E+00
-1.0176434516652322E+00
-1.0019486123950820E+00
-1.0019486123950090E+00
-9.8612194888870197E-01
-9.8612189879498124E-01
-9.7025382854755526E-01
-9.7025382854747322E-01
-9.5445514177882107E-01
-9.5445514177877278E-01
-9.3886147790826524E-01
-9.3886147790822905E-01
-9.2363798894950444E-01
-9.2363749804960082E-01
-9.0898165128484587E-01
-9.0898165128479147E-01
-8.9512427244842296E-01
-8.9512427244835446E-01
-8.8232451413139901E-01
-8.8232451413133006E-01
-8.7622787018940251E-01
-8.7602542014256135E-01
-8.7602542009827111E-01
-8.7542062554409994E-01
-8.7542062552695443E-01
-8.7441973695656205E-01
-8.7441973694867636E-01
-8.7303561080878900E-01
-8.7303186840702707E-01
-8.7127852803704475E-01
-8.7127852803616967E-01
-8.7085505523704365E-01
-8.7085189890870673E-01
-8.6917550079242600E-01
-8.6917550079195249E-01
-8.6675237654284021E-01
-8.6675237654250725E-01
-8.6404444838378058E-01
-8.6404417395636479E-01
-8.6109537111134304E-01
-8.6109537111120704E-01
-8.6096713330587304E-01
-8.6096713330583197E-01
-8.5796045162787615E-01
-8.5796045162683598E-01
-8.5470775568562596E-01
-8.5470775568464585E-01
-8.5286720385990600E-01
-8.5286720385975245E-01
-8.5142565582702279E-01
-8.5141808914959616E-01
-8.4820755176982443E-01
-8.4820755176940843E-01
-8.4666296196448865E-01
-8.4666296196444912E-01
-8.4519400755261476E-01
-8.4519400755256302E-01
-8.4253940355284773E-01
-8.4253940355275259E-01
-8.4234691724338773E-01
-8.4234679100669851E-01
-8.4043500470668786E-01
-8.4043410849130751E-01
-8.3979645718119811E-01
-8.3979645718111873E-01
-8.3910402633025827E-01
-8.3910402633019587E-01
-8.3880161050148372E-01
-8.3880161050139412E-01
-7.2730025045081548E-01
-7.2700939852723345E-01
-7.2700939848314516E-01
-7.2613737630055164E-01
-7.2613737628357200E-01
-7.2468579006675149E-01
-7.2468579005899170E-01
-7.2265815016244417E-01
-7.2265651883909787E-01
-7.2005582056478645E-01
-7.2005582056384576E-01
-7.1688621326903390E-01
-7.1688621326853585E-01
-7.1315468102600832E-01
-7.1315468102566126E-01
-7.0886878641715367E-01
-7.0886853017447049E-01
-7.0403692007417362E-01
-7.0403692007404917E-01
-6.9866967236561672E-01
-6.9866967236474808E-01
-6.9277867966779483E-01
-6.9277867966708950E-01
-6.8642432365746786E-01
-6.8632966262425321E-01
-6.7947998860601377E-01
-6.7947998860554726E-01
-6.7210494433527646E-01
-6.7210494433525869E-01
-6.6427063159236632E-01
-6.6427063159229738E-01
-6.5599876228756215E-01
-6.5599801871346708E-01
-6.4731192024333406E-01
-6.4731192024328088E-01
-6.3823749097918181E-01
-6.3823749097911997E-01
-6.2880413924897660E-01
-6.2880413924888912E-01
-6.1904396525294225E-01
-6.1904377054882820E-01
-6.0899186479123801E-01
-6.0899186479121825E-01
-5.9868686295641949E-01
-5.9868686295630480E-01
-5.8817604531180745E-01
-5.8817604531177192E-01
-5.8647024952281335E-01
-5.8646334975622305E-01
-5.8562073712452511E-01
-5.8562073712398599E-01
-5.8504754097710032E-01
-5.8504754097650802E-01
-5.8278866298863907E-01
-5.8278866298857335E-01
-5.8118546039750218E-01
-5.8118546039738106E-01
-5.7825782589386798E-01
-5.7825782589383778E-01
-5.7748854653270043E-01
-5.7747619454341093E-01
-5.7475110863085221E-01
-5.7475110863082524E-01
-5.7231010130551696E-01
-5.7230898783468553E-01
-5.6668373176865949E-01
-5.6668373176862463E-01
-5.6576742551424208E-01
-5.6576652633776625E-01
-5.6520300571269144E-01
-5.6520300571267146E-01
-5.5716945569808429E-01
-5.5716945569807497E-01
-5.5582007519870480E-01
-5.5582007519865495E-01
-5.5437333257858579E-01
-5.5437333257856192E-01
-5.4841251810733094E-01
-5.4841251810728986E-01
-5.4494868571819921E-01
-5.4494868571813593E-01
-5.4080667164347307E-01
-5.4080667164340612E-01
-5.3911197020252488E-01
-5.3911092027939422E-01
-5.3413308999785658E-01
-5.3412603406122194E-01
-5.2942526542176971E-01
-5.2942526542172075E-01
-5.2536130298448103E-01
-5.2536130298440875E-01
-5.2342567658013317E-01
-5.2342567658008821E-01
-5.1949674663682865E-01
-5.1949674663681666E-01
-5.1290252262416991E-01
-5.1290252262410829E-01
-5.0945568158247512E-01
-5.0945568158245969E-01
-5.0835365362233431E-01
-5.0835312839879720E-01
-5.0262740318544852E-01
-5.0262740318534094E-01
-4.9942402639680489E-01
-4.9941862679825577E-01
-4.9266855673839888E-01
-4.9266841447026033E-01
-4.9009633340118330E-01
-4.9009633340111514E-01
-4.8950398865156386E-01
-4.8950398865153849E-01
-4.8309360964762543E-01
-4.8309360964751158E-01
-4.7980584570949947E-01
-4.7980584570946927E-01
-4.7396886157350282E-01
-4.7396886157343904E-01
-4.7088867386220629E-01
-4.7088867386218808E-01
-4.7042079683333660E-01
-4.7042079683330884E-01
-4.6535694402367000E-01
-4.6535694402360728E-01
-4.6143615156781631E-01
-4.6143302177236711E-01
-4.5732166762057952E-01
-4.5730912097912235E-01
-4.5292312845128685E-01
-4.5292312845127047E-01
-4.5101243500404503E-01
-4.5101243500368987E-01
-4.4989476033589965E-01
-4.4989476033585546E-01
-4.4495178264172586E-01
-4.4495178264163970E-01
-4.4313683317309704E-01
-4.4313683317302555E-01
-4.3757398260658087E-01
-4.3757398260656510E-01
-4.3707302221474859E-01
-4.3707302221468153E-01
-4.3172614017283251E-01
-4.3172017373803723E-01
-4.3084098782388547E-01
-4.3083068229494081E-01
-4.3082953377816369E-01
-4.3063038578989943E-01
-4.2709495210740217E-01
-4.2709495210736098E-01
-4.2510485315814939E-01
-4.2500575384911449E-01
-4.2500575380600591E-01
-4.2474790806860019E-01
-4.2474790806852469E-01
-4.2471430129803356E-01
-4.2471430128189153E-01
-4.2423234234464441E-01
-4.2423234233728868E-01
-4.2357666866681004E-01
-4.2357384363461592E-01
-4.2317988498539383E-01
-4.2317988498519898E-01
-4.2275937082337672E-01
-4.2275937082258319E-01
-4.2180642541821772E-01
-4.2180642541777580E-01
-4.2074317801462036E-01
-4.2074317801428623E-01
-4.1996529252808640E-01
-4.1996529252806281E-01
-4.1960204797692324E-01
-4.1960088394282491E-01
-4.1934466007884696E-01
-4.1934466007879739E-01
-4.1841821435521032E-01
-4.1841821435503368E-01
-4.1741781905736342E-01
-4.1741780756649860E-01
-4.1723548924247023E-01
-4.1723548924225679E-01
-4.1610095489746540E-01
-4.1610095489433130E-01
-4.1549663499553380E-01
-4.1549663499543088E-01
-4.1514130225617546E-01
-4.1497847747929956E-01
-4.1469462090360398E-01
-4.1469462090358883E-01
-4.1417339134718217E-01
-4.1417339134352371E-01
-4.1414691068032650E-01
-4.1414691068030196E-01
-4.1350681069134720E-01
-4.1350681069075390E-01
-4.1323603100544865E-01
-4.1323603100452344E-01
-4.1311944594546879E-01
-4.1311944594462002E-01
-4.1310083801830416E-01
-4.1309742502797392E-01
-4.1038746897157824E-01
-4.1038367159029293E-01
-4.1032088982612741E-01
-4.1032088982558612E-01
-4.0694200467196745E-01
-4.0694200467183128E-01
-4.0405012674696567E-01
-4.0405012674664842E-01
-4.0168539104943629E-01
-4.0168539104797213E-01
-3.9985054268811565E-01
-3.9974111608337154E-01
-3.9832639567623573E-01
-3.9832639567412442E-01
-3.9722004802111549E-01
-3.9722004801994115E-01
-3.9641713737893125E-01
-3.9641713737876361E-01
-3.9586212873137255E-01
-3.9586198184801685E-01
-3.9550258042203396E-01
-3.9550258042169867E-01
-3.9529109132110735E-01
-3.9529109132033868E-01
-3.9519658426459336E-01
-3.9518939237811695E-01
-3.9518939233357925E-01
-3.9518535696080248E-01
-3.9518535695677665E-01
-3.9517119179102950E-01
-3.9517119177395194E-01
-3.9515208398601748E-01
-3.9515208398058815E-01
-3.9515015867748304E-01
-3.9514784449369705E-01
-3.9003292562431557E-01
-3.9003292562362601E-01
-3.7014490552335322E-01
-3.7014490552322210E-01
-3.5094735220780643E-01
-3.5094700304030002E-01
-3.3275179364077179E-01
-3.3275179364044555E-01
-3.1589468535197895E-01
-3.1589468535149673E-01
-3.0073320466088438E-01
-3.0073320465987796E-01
-2.8763772060677711E-01
-2.8763656904539092E-01
-2.7697165183758449E-01
-2.7697165182880590E-01
-2.6907177639288010E-01
-2.6907177637381474E-01
-2.6421104871742329E-01
-2.6421104867043055E-01
-2.6256977397923636E-01
QETSC: Iter time (min)       =     2  17.75
QETSC: Iter time (max)       =     2  17.76
QETSC: Iter time (avg)       =     2  17.75
QETSC: Num. of conv. evals   =     2         384
QETSC: Eigenvalue (1)        =     2  -1.2740833956465152E+00
QETSC: Eigenvalue (nocc)     =     2  -2.6256977397923636E-01
QETSC: Max differrence       =     2   4.5910970112350563E-01
QETSC: Safe iteration        =     2      F
QETSC: Finished iter         =           2
 *****************************************************************
QETSC: SCF iter time=  17.760
 QETSC: Shifts, inertias         =
      -INF     0
    -2.300     0
    -2.226     0
    -2.152     0
    -2.077     0
    -2.003     0
    -1.929     0
    -1.855     0
    -1.781     0
    -1.706     0
    -1.632     0
    -1.558     0
    -1.484     0
    -1.410    15
    -1.335    35
    -1.261    47
    -1.187    59
    -1.113    67
    -1.039    77
    -0.965   128
    -0.890   128
    -0.816   149
    -0.742   167
    -0.668   217
    -0.594   253
    -0.519   345
    -0.445   384
    -0.371   384
    -0.297   384
    -0.223   384
    -0.148   384
    -0.074   384
     0.000   384
 QETSc: Custers,iter,crange,npcmax,trial 3 0.315459529768077132E-01 24 14
-1.4541935483870967E+00
-1.4195698924731182E+00
-1.3837096774193549E+00
-1.3503225806451613E+00
-1.3169354838709677E+00
-1.2798387096774193E+00
-1.2427419354838709E+00
-1.2056451612903225E+00
-1.1685483870967741E+00
-1.1314516129032257E+00
-1.0906451612903225E+00
-1.0535483870967741E+00
-1.0154332700822264E+00
-9.8342820999367475E-01
-9.6597090449082845E-01
-8.6205837173579103E-01
-8.3026113671274948E-01
-7.9551971326164861E-01
-7.6254480286738346E-01
-7.2709677419354835E-01
-6.9445161290322577E-01
-6.6155913978494618E-01
-6.2858422939068093E-01
-5.9560931899641578E-01
-5.7499999999999996E-01
-5.5564516129032249E-01
-5.3629032258064513E-01
-5.1364764267990071E-01
-4.8130686517783283E-01
-4.4896608767576501E-01
-4.4516129032258056E-01
 QETSC: Bins             =
                   -INF
-1.4838709677419353E+00
-1.4472688172043009E+00
-1.4123978494623655E+00
-1.3770322580645162E+00
-1.3436451612903226E+00
-1.3095161290322581E+00
-1.2724193548387097E+00
-1.2353225806451613E+00
-1.1982258064516129E+00
-1.1611290322580645E+00
-1.1232903225806450E+00
-1.0832258064516129E+00
-1.0459253636938646E+00
-1.0090322580645161E+00
-9.7993674889310545E-01
-9.4518839793982101E-01
-8.5569892473118270E-01
-8.2331285202252935E-01
-7.8892473118279560E-01
-7.5545519713261644E-01
-7.2056774193548379E-01
-6.8787311827956987E-01
-6.5496415770609318E-01
-6.2198924731182792E-01
-5.9148745519713264E-01
-5.7112903225806444E-01
-5.5177419354838697E-01
-5.3176178660049622E-01
-5.0717948717948713E-01
-4.7483870967741926E-01
-4.4820512820512814E-01
-4.4516129032258056E-01
QETSC: Started iter            3
QETSC: Bin type used         =           7
QETSC: Buffer used           =   0.0000000000000000E+00
QETSC: EPS interval          =      -INF,    -0.445
QETSC: Inertia type          =           1
SLEPc: EPSSolve time = 0 1.712e-06
SLEPc: EPSSolve time = 16 2.172e-06
SLEPc: EPSSolve time = 1 1.456e-06
SLEPc: EPSSolve time = 7 2.465e+00
SLEPc: EPSSolve time = 9 2.475e+00
SLEPc: EPSSolve time = 11 2.477e+00
SLEPc: EPSSolve time = 12 2.500e+00
SLEPc: EPSSolve time = 4 2.519e+00
SLEPc: EPSSolve time = 31 2.519e+00
SLEPc: EPSSolve time = 10 2.542e+00
SLEPc: EPSSolve time = 6 2.551e+00
SLEPc: EPSSolve time = 8 2.557e+00
SLEPc: EPSSolve time = 29 2.563e+00
SLEPc: EPSSolve time = 5 2.581e+00
SLEPc: EPSSolve time = 18 2.669e+00
SLEPc: EPSSolve time = 30 2.681e+00
SLEPc: EPSSolve time = 3 2.694e+00
SLEPc: EPSSolve time = 2 2.782e+00
SLEPc: EPSSolve time = 17 2.819e+00
SLEPc: EPSSolve time = 14 3.027e+00
SLEPc: EPSSolve time = 13 3.287e+00
SLEPc: EPSSolve time = 19 3.473e+00
SLEPc: EPSSolve time = 24 3.493e+00
SLEPc: EPSSolve time = 25 3.523e+00
SLEPc: EPSSolve time = 23 3.572e+00
SLEPc: EPSSolve time = 26 3.576e+00
SLEPc: EPSSolve time = 22 3.589e+00
SLEPc: EPSSolve time = 20 3.672e+00
SLEPc: EPSSolve time = 15 3.854e+00
SLEPc: EPSSolve time = 21 4.317e+00
SLEPc: EPSSolve time = 28 1.002e+01
SLEPc: EPSSolve time = 27 1.326e+01
 QETSC: Eigenvalues         =
-1.4283282351049624E+00
-1.4280311334259159E+00
-1.4280311333989477E+00
-1.4271399230874009E+00
-1.4271399230816180E+00
-1.4256548912094289E+00
-1.4256548912057472E+00
-1.4235769892453667E+00
-1.4235760616683597E+00
-1.4209055278423779E+00
-1.4209055278419747E+00
-1.4176428326643082E+00
-1.4176428326641266E+00
-1.4137896284994675E+00
-1.4137896284992775E+00
-1.4093475167831373E+00
-1.4093472514455332E+00
-1.4043178773143898E+00
-1.4043178773143157E+00
-1.3987032273552968E+00
-1.3987032273550735E+00
-1.3925059335383023E+00
-1.3925059335379173E+00
-1.3857457494587546E+00
-1.3857119869551680E+00
-1.3783754295639041E+00
-1.3783754295638153E+00
-1.3704495236450702E+00
-1.3704495236450360E+00
-1.3619555532860439E+00
-1.3619555532859677E+00
-1.3529005791860946E+00
-1.3528966042265140E+00
-1.3432844133336352E+00
-1.3432844133335933E+00
-1.3331195858788465E+00
-1.3331195858788252E+00
-1.3224115768280817E+00
-1.3224115768280449E+00
-1.3111692926455061E+00
-1.3111684740066352E+00
-1.2994011882634113E+00
-1.2994011882633929E+00
-1.2871195522997529E+00
-1.2871195522997259E+00
-1.2743366513895664E+00
-1.2743366513895429E+00
-1.2610738248563564E+00
-1.2610603116007100E+00
-1.2473276711686245E+00
-1.2473276711686079E+00
-1.2331380744448603E+00
-1.2331380744448497E+00
-1.2185212227861721E+00
-1.2185212227861490E+00
-1.2035060829973423E+00
-1.2035022211645343E+00
-1.1881189484325674E+00
-1.1881189484325594E+00
-1.1724039846274565E+00
-1.1724039846274463E+00
-1.1564055130712330E+00
-1.1564055130712037E+00
-1.1401798053468795E+00
-1.1401796343477335E+00
-1.1237953611010085E+00
-1.1237953611009814E+00
-1.1073371149467732E+00
-1.1073371149467608E+00
-1.0909097556217751E+00
-1.0909097556217717E+00
-1.0746435070531959E+00
-1.0746427960153675E+00
-1.0586978155661004E+00
-1.0586978155660762E+00
-1.0432701539122990E+00
-1.0432701539122682E+00
-1.0285955029057454E+00
-1.0285955029057137E+00
-1.0149457768056285E+00
-1.0149451869376689E+00
-1.0026146702547976E+00
-1.0026146702547756E+00
-9.9702101989168901E-01
-9.9682994813361736E-01
-9.9682994810694536E-01
-9.9625915776126506E-01
-9.9625915775555507E-01
-9.9531565007633649E-01
-9.9531565007271028E-01
-9.9401349402248451E-01
-9.9400988930264222E-01
-9.9236502597873633E-01
-9.9236502597836440E-01
-9.9189175778675875E-01
-9.9189175778670546E-01
-9.9039972626263328E-01
-9.9039972626245210E-01
-9.8814725118300228E-01
-9.8814725118281332E-01
-9.8564797658232151E-01
-9.8564785345786754E-01
-9.8301567765955999E-01
-9.8301567765952658E-01
-9.8295285222515461E-01
-9.8295285222508144E-01
-9.8012661225204822E-01
-9.8012661225180731E-01
-9.7725051785224193E-01
-9.7725051785170958E-01
-9.7612609046903231E-01
-9.7612581310966384E-01
-9.7442829074771864E-01
-9.7442549075304263E-01
-9.7178414762447107E-01
-9.7178414762433474E-01
-9.7122857781110372E-01
-9.7122857781105931E-01
-9.6948242889693481E-01
-9.6948242889688507E-01
-9.6819424677313015E-01
-9.6819424677307497E-01
-9.6771886478318803E-01
-9.6771886478307934E-01
-9.6679041355942974E-01
-9.6679041355937612E-01
-9.6673080420988644E-01
-9.6672996893724172E-01
-8.4509189855449085E-01
-8.4480493769448894E-01
-8.4480493766797538E-01
-8.4394456820004404E-01
-8.4394456819446462E-01
-8.4251233427707406E-01
-8.4251233427352468E-01
-8.4051153251762822E-01
-8.4051011780347695E-01
-8.3794369969653915E-01
-8.3794369969614058E-01
-8.3481571972111912E-01
-8.3481571972092827E-01
-8.3113279355297220E-01
-8.3113279355278291E-01
-8.2690203327781941E-01
-8.2690202850650285E-01
-8.2213180802119346E-01
-8.2213180802113639E-01
-8.1683184668674857E-01
-8.1683184668652953E-01
-8.1101332457703268E-01
-8.1101332457670849E-01
-8.0473209808884638E-01
-8.0464519224858644E-01
-7.9787232484651038E-01
-7.9787232484631410E-01
-7.9058063448313032E-01
-7.9058063448311178E-01
-7.8283125196782066E-01
-7.8283125196775782E-01
-7.7464458796898528E-01
-7.7464377599695999E-01
-7.6604158018332502E-01
-7.6604158018327884E-01
-7.5704794149328847E-01
-7.5704794149325738E-01
-7.4769030094636824E-01
-7.4769030094633182E-01
-7.4009347275565873E-01
-7.4009347275562776E-01
-7.3899804068566166E-01
-7.3899129263877827E-01
-7.3893688308119532E-01
-7.3893688308116912E-01
-7.3799883766477292E-01
-7.3799882572805353E-01
-7.3593043274422987E-01
-7.3593043274417347E-01
-7.3529205367596318E-01
-7.3529205367595762E-01
-7.3120270372190277E-01
-7.3120270372188922E-01
-7.2902789136918467E-01
-7.2902677656848858E-01
-7.2800186189424898E-01
-7.2800186189422711E-01
-7.2509619529831448E-01
-7.2509619529830105E-01
-7.2016401359534743E-01
-7.2016401359532334E-01
-7.1786578931646916E-01
-7.1786377649602640E-01
-7.1774192808998805E-01
-7.1774192808995008E-01
-7.0972855541073920E-01
-7.0972855541072566E-01
-7.0885604978435823E-01
-7.0885604978431571E-01
-7.0725313391151623E-01
-7.0725313391150202E-01
-7.0087661259682543E-01
-7.0087661259681433E-01
-6.9658246238341170E-01
-6.9657333428740742E-01
-6.9537492392752742E-01
-6.9537492392747058E-01
-6.9147204747446867E-01
-6.9147204747444035E-01
-6.8576132127258638E-01
-6.8576132127256850E-01
-6.8165770395562952E-01
-6.8165671878626843E-01
-6.8005669840881455E-01
-6.8005662199716077E-01
-6.7485175344154757E-01
-6.7485175344151427E-01
-6.7155835742058723E-01
-6.7155835742055814E-01
-6.6390077727542940E-01
[...]

/home/keceli/scratch2/siesta-qetsc/Obj/siesta on a arch-xl named Q02-I0-J01.vesta.itd with 32 processors, by Unknown Wed Jan 11 18:04:45 2017
Using Petsc Development GIT revision: v3.7.3-1204-g68f0caa  GIT Date: 2016-08-19 16:41:02 -0500

                         Max       Max/Min        Avg      Total 
Time (sec):           1.747e+02      1.00000   1.747e+02
Objects:              1.256e+03      1.16837   1.187e+03
Flops:                9.809e+09   4004.56481   4.170e+09  1.334e+11
Flops/sec:            5.615e+07   4004.56497   2.387e+07  7.638e+08
MPI Messages:         8.350e+03      1.88233   6.069e+03  1.942e+05
MPI Message Lengths:  4.694e+07      1.65710   6.362e+03  1.236e+09
MPI Reductions:       5.374e+03      1.00000

Flop counting convention: 1 flop = 1 real number operation of type (multiply/divide/add/subtract)
                            e.g., VecAXPY() for real vectors of length N --> 2N flops
                            and VecAXPY() for complex vectors of length N --> 8N flops

Summary of Stages:   ----- Time ------  ----- Flops -----  --- Messages ---  -- Message Lengths --  -- Reductions --
                        Avg     %Total     Avg     %Total   counts   %Total     Avg         %Total   counts   %Total 
 0:      Main Stage: 1.9343e-04   0.0%  0.0000e+00   0.0%  0.000e+00   0.0%  0.000e+00        0.0%  0.000e+00   0.0% 
 1:     siesta_init: 2.8279e+00   1.6%  0.0000e+00   0.0%  0.000e+00   0.0%  0.000e+00        0.0%  0.000e+00   0.0% 
 2:   siesta_forces: 2.1518e+01  12.3%  0.0000e+00   0.0%  0.000e+00   0.0%  0.000e+00        0.0%  0.000e+00   0.0% 
 3:    siesta_solve: 5.5354e-03   0.0%  0.0000e+00   0.0%  0.000e+00   0.0%  0.000e+00        0.0%  0.000e+00   0.0% 
 4:    siesta2qetsc: 1.4861e-01   0.1%  0.0000e+00   0.0%  3.180e+02   0.2%  4.277e-01        0.0%  5.300e+01   1.0% 
 5: qetsc_setup_eps: 5.0962e+00   2.9%  7.8381e+07   0.1%  4.991e+04  25.7%  5.904e+03       92.8%  4.400e+01   0.8% 
 6: qetsc_solve_eps: 8.7171e+01  49.9%  1.3335e+11  99.9%  5.580e+02   0.3%  1.724e-02        0.0%  7.200e+01   1.3% 
 7:   qetsc_eigvals: 4.7707e-02   0.0%  0.0000e+00   0.0%  0.000e+00   0.0%  0.000e+00        0.0%  0.000e+00   0.0% 
 8:   qetsc_density: 1.0671e+01   6.1%  0.0000e+00   0.0%  1.434e+05  73.8%  4.582e+02        7.2%  5.204e+03  96.8% 
10:     siesta_misc: 4.6065e+01  26.4%  0.0000e+00   0.0%  0.000e+00   0.0%  0.000e+00        0.0%  0.000e+00   0.0% 
11:     siesta_move: 1.1292e-01   0.1%  0.0000e+00   0.0%  0.000e+00   0.0%  0.000e+00        0.0%  0.000e+00   0.0% 
12: siesta_analysis: 3.0576e-02   0.0%  0.0000e+00   0.0%  0.000e+00   0.0%  0.000e+00        0.0%  0.000e+00   0.0% 
13:     qetsc_clean: 3.2147e-06   0.0%  0.0000e+00   0.0%  0.000e+00   0.0%  0.000e+00        0.0%  0.000e+00   0.0% 
14:      siesta_end: 9.9849e-01   0.6%  0.0000e+00   0.0%  0.000e+00   0.0%  0.000e+00        0.0%  0.000e+00   0.0% 

------------------------------------------------------------------------------------------------------------------------
See the 'Profiling' chapter of the users' manual for details on interpreting output.
Phase summary info:
   Count: number of times phase was executed
   Time and Flops: Max - maximum over all processors
                   Ratio - ratio of maximum to minimum over all processors
   Mess: number of messages sent
   Avg. len: average message length (bytes)
   Reduct: number of global reductions
   Global: entire computation
   Stage: stages of a computation. Set stages with PetscLogStagePush() and PetscLogStagePop().
      %T - percent time in this phase         %F - percent flops in this phase
      %M - percent messages in this phase     %L - percent message lengths in this phase
      %R - percent reductions in this phase
   Total Mflop/s: 10e-6 * (sum of flops over all processors)/(max time over all processors)
------------------------------------------------------------------------------------------------------------------------
Event                Count      Time (sec)     Flops                             --- Global ---  --- Stage ---   Total
                   Max Ratio  Max     Ratio   Max  Ratio  Mess   Avg len Reduct  %T %F %M %L %R  %T %F %M %L %R Mflop/s
------------------------------------------------------------------------------------------------------------------------

--- Event Stage 0: Main Stage


--- Event Stage 1: siesta_init


--- Event Stage 2: siesta_forces


--- Event Stage 3: siesta_solve


--- Event Stage 4: siesta2qetsc

MatConvert             2 1.0 1.1381e-03 1.1 0.00e+00 0.0 0.0e+00 0.0e+00 0.0e+00  0  0  0  0  0   1  0  0  0  0     0
MatAssemblyBegin      10 1.0 8.8466e-0268.1 0.00e+00 0.0 0.0e+00 0.0e+00 4.0e+01  0  0  0  0  1  38  0  0  0 75     0
MatAssemblyEnd        10 1.0 4.4232e-03 1.0 0.00e+00 0.0 3.2e+02 2.6e+02 1.1e+01  0  0  0  0  0   3  0100100 21     0
VecSet                 3 1.0 1.1998e-05 1.3 0.00e+00 0.0 0.0e+00 0.0e+00 0.0e+00  0  0  0  0  0   0  0  0  0  0     0

--- Event Stage 5: qetsc_setup_eps

MatCholFctrSym         1 1.0 5.0608e-01 1.1 0.00e+00 0.0 0.0e+00 0.0e+00 0.0e+00  0  0  0  0  0   9  0  0  0  0     0
MatCholFctrNum         5 1.0 2.3140e+00 1.0 0.00e+00 0.0 0.0e+00 0.0e+00 0.0e+00  1  0  0  0  0  45  0  0  0  0     0
MatCopy               11 1.0 4.1251e-01 1.0 0.00e+00 0.0 0.0e+00 0.0e+00 0.0e+00  0  0  0  0  0   8  0  0  0  0     0
MatConvert             4 1.0 1.7898e-02 2.2 0.00e+00 0.0 0.0e+00 0.0e+00 0.0e+00  0  0  0  0  0   0  0  0  0  0     0
MatScale              16 1.0 6.8993e-03 4.3 2.45e+06 1.0 0.0e+00 0.0e+00 0.0e+00  0  0  0  0  0   0100  0  0  0 11361
MatAssemblyBegin      19 1.0 4.5304e-05 1.5 0.00e+00 0.0 0.0e+00 0.0e+00 0.0e+00  0  0  0  0  0   0  0  0  0  0     0
MatAssemblyEnd        19 1.0 6.5907e-02 1.3 0.00e+00 0.0 0.0e+00 0.0e+00 0.0e+00  0  0  0  0  0   1  0  0  0  0     0
MatGetRow          41216 1.0 3.4266e-01 1.0 0.00e+00 0.0 0.0e+00 0.0e+00 0.0e+00  0  0  0  0  0   7  0  0  0  0     0
MatGetRowIJ            1 1.0 4.4037e-06 3.2 0.00e+00 0.0 0.0e+00 0.0e+00 0.0e+00  0  0  0  0  0   0  0  0  0  0     0
MatGetSubMatrice      10 1.0 8.1640e-01 1.1 0.00e+00 0.0 5.0e+04 2.3e+04 2.0e+01  0  0 26 93  0  15  0 99100 45     0
MatGetOrdering         1 1.0 4.5108e-04 1.5 0.00e+00 0.0 0.0e+00 0.0e+00 0.0e+00  0  0  0  0  0   0  0  0  0  0     0
MatZeroEntries         4 1.0 6.6664e-03 1.2 0.00e+00 0.0 0.0e+00 0.0e+00 0.0e+00  0  0  0  0  0   0  0  0  0  0     0
MatAXPY               13 1.0 1.0212e+00 1.0 0.00e+00 0.0 0.0e+00 0.0e+00 0.0e+00  1  0  0  0  0  20  0  0  0  0     0
MatRedundantMat       10 1.0 8.3108e-01 1.1 0.00e+00 0.0 5.0e+04 2.3e+04 2.0e+01  0  0 26 93  0  16  0 99100 45     0
VecSet                19 1.0 1.1380e-03 3.8 0.00e+00 0.0 0.0e+00 0.0e+00 0.0e+00  0  0  0  0  0   0  0  0  0  0     0
EPSSetUp               5 1.0 4.4525e+00 1.0 0.00e+00 0.0 1.0e+04 2.2e+04 2.6e+01  3  0  5 19  0  87  0 20 20 59     0
STSetUp               10 1.0 4.2113e+00 1.0 0.00e+00 0.0 0.0e+00 0.0e+00 2.0e+00  2  0  0  0  0  81  0  0  0  5     0
KSPSetUp               5 1.0 1.3567e-05 2.2 0.00e+00 0.0 0.0e+00 0.0e+00 0.0e+00  0  0  0  0  0   0  0  0  0  0     0
PCSetUp                5 1.0 2.8070e+00 1.0 0.00e+00 0.0 0.0e+00 0.0e+00 0.0e+00  2  0  0  0  0  54  0  0  0  0     0

--- Event Stage 6: qetsc_solve_eps

MatMult             5643 0.0 2.6149e+01 0.0 6.86e+09 0.0 0.0e+00 0.0e+00 0.0e+00  7 73  0  0  0  13 73  0  0  0  3704
MatSolve            2157 0.0 3.1077e+01 0.0 0.00e+00 0.0 0.0e+00 0.0e+00 0.0e+00  8  0  0  0  0  16  0  0  0  0     0
MatCholFctrNum        16 1.8 7.2283e+00 1.8 0.00e+00 0.0 0.0e+00 0.0e+00 0.0e+00  2  0  0  0  0   5  0  0  0  0     0
MatCopy               16 1.8 1.5759e+00 1.8 0.00e+00 0.0 0.0e+00 0.0e+00 0.0e+00  1  0  0  0  0   1  0  0  0  0     0
MatAssemblyBegin      32 1.8 2.9238e-05 1.7 0.00e+00 0.0 0.0e+00 0.0e+00 0.0e+00  0  0  0  0  0   0  0  0  0  0     0
MatAssemblyEnd        32 1.8 8.0881e-02 1.7 0.00e+00 0.0 0.0e+00 0.0e+00 0.0e+00  0  0  0  0  0   0  0  0  0  0     0
MatGetRow         141312 1.8 1.1554e+00 1.8 0.00e+00 0.0 0.0e+00 0.0e+00 0.0e+00  0  0  0  0  0   1  0  0  0  0     0
MatZeroEntries        16 1.8 1.7495e-02 1.1 0.00e+00 0.0 0.0e+00 0.0e+00 0.0e+00  0  0  0  0  0   0  0  0  0  0     0
MatAXPY               16 1.8 3.1649e+00 1.8 0.00e+00 0.0 0.0e+00 0.0e+00 0.0e+00  1  0  0  0  0   2  0  0  0  0     0
VecDot               260 0.0 2.8052e-03 0.0 1.53e+06 0.0 0.0e+00 0.0e+00 0.0e+00  0  0  0  0  0   0  0  0  0  0  7253
VecCopy             2449 0.0 1.6823e-02 0.0 0.00e+00 0.0 0.0e+00 0.0e+00 0.0e+00  0  0  0  0  0   0  0  0  0  0     0
VecSet              7902292.7 5.5608e-02390.9 0.00e+00 0.0 0.0e+00 0.0e+00 0.0e+00  0  0  0  0  0   0  0  0  0  0     0
VecSetRandom           9 0.0 1.5849e-02 0.0 0.00e+00 0.0 0.0e+00 0.0e+00 0.0e+00  0  0  0  0  0   0  0  0  0  0     0
EPSSetUp               9 1.0 7.2982e+00 1.1 0.00e+00 0.0 5.6e+02 6.0e+00 1.8e+01  4  0  0  0  0   8  0100100 25     0
EPSSolve               9 1.0 8.7194e+01 1.0 9.81e+09 0.0 5.6e+02 6.0e+00 7.2e+01 50100  0  0  1 100100100100100  1529
STSetUp               13 1.0 3.0485e+00 1.0 0.00e+00 0.0 0.0e+00 0.0e+00 0.0e+00  2  0  0  0  0   3  0  0  0  0     0
STApply             2157 0.0 4.1400e+01 0.0 2.62e+09 0.0 0.0e+00 0.0e+00 0.0e+00 11 28  0  0  0  22 28  0  0  0   887
STMatSolve          2157 0.0 3.1393e+01 0.0 0.00e+00 0.0 0.0e+00 0.0e+00 0.0e+00  8  0  0  0  0  17  0  0  0  0     0
KSPSetUp              16 1.8 2.5249e-05 2.8 0.00e+00 0.0 0.0e+00 0.0e+00 0.0e+00  0  0  0  0  0   0  0  0  0  0     0
KSPSolve            2157 0.0 3.1156e+01 0.0 0.00e+00 0.0 0.0e+00 0.0e+00 0.0e+00  8  0  0  0  0  16  0  0  0  0     0
PCSetUp               16 1.8 7.2287e+00 1.8 0.00e+00 0.0 0.0e+00 0.0e+00 0.0e+00  2  0  0  0  0   5  0  0  0  0     0
PCApply             2157 0.0 3.1086e+01 0.0 0.00e+00 0.0 0.0e+00 0.0e+00 0.0e+00  8  0  0  0  0  16  0  0  0  0     0
BVCreate              25 0.0 1.8134e-02 0.0 0.00e+00 0.0 0.0e+00 0.0e+00 0.0e+00  0  0  0  0  0   0  0  0  0  0     0
BVCopy               292 0.0 2.9868e-03 0.0 0.00e+00 0.0 0.0e+00 0.0e+00 0.0e+00  0  0  0  0  0   0  0  0  0  0     0
BVMultVec           3256 0.0 1.3503e+00 0.0 1.10e+09 0.0 0.0e+00 0.0e+00 0.0e+00  0  9  0  0  0   1  9  0  0  0  9164
BVMultInPlace         87 0.0 3.7418e-01 0.0 7.14e+08 0.0 0.0e+00 0.0e+00 0.0e+00  0  9  0  0  0   0  9  0  0  0 30360
BVDotVec            3256 0.0 1.5747e+01 0.0 5.08e+09 0.0 0.0e+00 0.0e+00 0.0e+00  4 51  0  0  0   8 51  0  0  0  4355
BVOrthogonalizeV    1927 0.0 1.7130e+01 0.0 6.18e+09 0.0 0.0e+00 0.0e+00 0.0e+00  4 61  0  0  0   9 61  0  0  0  4725
BVScale             2157 0.0 1.7874e-02 0.0 6.35e+06 0.0 0.0e+00 0.0e+00 0.0e+00  0  0  0  0  0   0  0  0  0  0  4975
BVNormVec            260 0.0 1.2080e+00 0.0 3.18e+08 0.0 0.0e+00 0.0e+00 0.0e+00  0  3  0  0  0   1  3  0  0  0  3495
BVSetRandom            9 0.0 1.5938e-02 0.0 0.00e+00 0.0 0.0e+00 0.0e+00 0.0e+00  0  0  0  0  0   0  0  0  0  0     0
DSSolve               80 0.0 3.5949e-01 0.0 0.00e+00 0.0 0.0e+00 0.0e+00 0.0e+00  0  0  0  0  0   0  0  0  0  0     0
DSVectors           2722 0.0 6.3589e-03 0.0 0.00e+00 0.0 0.0e+00 0.0e+00 0.0e+00  0  0  0  0  0   0  0  0  0  0     0
DSOther               87 0.0 1.3184e-02 0.0 0.00e+00 0.0 0.0e+00 0.0e+00 0.0e+00  0  0  0  0  0   0  0  0  0  0     0

--- Event Stage 7: qetsc_eigvals


--- Event Stage 8: qetsc_density

VecCopy             3456 1.0 1.0054e-02 1.2 0.00e+00 0.0 0.0e+00 0.0e+00 0.0e+00  0  0  0  0  0   0  0  0  0  0     0
VecSet                 1 1.0 2.3502e-05 5.0 0.00e+00 0.0 0.0e+00 0.0e+00 0.0e+00  0  0  0  0  0   0  0  0  0  0     0
VecScatterBegin     6912 1.0 6.9049e-01 1.1 0.00e+00 0.0 1.1e+05 7.4e+02 3.5e+03  0  0 55  6 64   6  0 75 89 66     0
VecScatterEnd       3456 1.0 6.8758e-01 1.1 0.00e+00 0.0 0.0e+00 0.0e+00 0.0e+00  0  0  0  0  0   6  0  0  0  0     0
BVCopy              3456 1.0 2.9184e-02 1.2 0.00e+00 0.0 0.0e+00 0.0e+00 0.0e+00  0  0  0  0  0   0  0  0  0  0     0

--- Event Stage 9: Unknown


--- Event Stage 10: siesta_misc


--- Event Stage 11: siesta_move


--- Event Stage 12: siesta_analysis


--- Event Stage 13: qetsc_clean


--- Event Stage 14: siesta_end

------------------------------------------------------------------------------------------------------------------------

Memory usage is given in bytes:

Object Type          Creations   Destructions     Memory  Descendants' Mem.
Reports information only for process 0.

--- Event Stage 0: Main Stage


--- Event Stage 1: siesta_init


--- Event Stage 2: siesta_forces


--- Event Stage 3: siesta_solve


--- Event Stage 4: siesta2qetsc

              Matrix     9              0            0     0.
              Vector    19              1         1648     0.
      Vector Scatter     4              0            0     0.
           Index Set     4              4         7552     0.

--- Event Stage 5: qetsc_setup_eps

              Matrix    13              5     24074116     0.
              Vector    38             20       313184     0.
           Index Set    28             21        16464     0.
          EPS Solver     2              0            0     0.
  Spectral Transform     2              0            0     0.
       Krylov Solver     2              0            0     0.
      Preconditioner     2              0            0     0.
       Basis Vectors     7              4         4224     0.
         PetscRandom     1              0            0     0.
              Region     2              0            0     0.
       Direct Solver     2              0            0     0.

--- Event Stage 6: qetsc_solve_eps

              Matrix     9              9     44435628     0.
              Vector    45             45       704664     0.
       Basis Vectors     9              9         9504     0.

--- Event Stage 7: qetsc_eigvals


--- Event Stage 8: qetsc_density

              Vector    10              9       226800     0.
      Vector Scatter   289            288       315360     0.
           Index Set   577            577       664336     0.

--- Event Stage 9: Unknown


--- Event Stage 10: siesta_misc


--- Event Stage 11: siesta_move

              Matrix     0             17     35013768     0.
              Vector     0             37      2434640     0.
      Vector Scatter     0              5         4944     0.
           Index Set     0              7        17264     0.
          EPS Solver     0              2        25144     0.
  Spectral Transform     0              2         1632     0.
       Krylov Solver     0              2         2336     0.
      Preconditioner     0              2         1952     0.
       Basis Vectors     0              3         3168     0.
         PetscRandom     0              1          638     0.
              Region     0              2         1312     0.
       Direct Solver     0              2       109992     0.

--- Event Stage 12: siesta_analysis


--- Event Stage 13: qetsc_clean


--- Event Stage 14: siesta_end

              Viewer     1              0            0     0.
========================================================================================================================
Average time to get PetscTime(): 1.24437e-07
Average time for MPI_Barrier(): 2.8155e-06
Average time for zero size MPI_Send(): 1.09874e-05
#PETSc Option Table entries:
-eps_interval -2.3,0.
-eps_krylovschur_detect_zeros 0
-eps_krylovschur_partitions 32
-ioptbin 7
-ioptdensity 0
-ioptinertia 1
-ioptleft 2
-ioptwrite 1
-log_view
-mat_mumps_cntl_3 1e-12
-mat_mumps_icntl_13 1
-mat_mumps_icntl_23 0
-mat_mumps_icntl_24 1
-mat_mumps_icntl_7 5
-mat_type mpisbaij
#End of PETSc Option Table entries
Compiled with FORTRAN kernels
Compiled with full precision matrices (default)
sizeof(short) 2 sizeof(int) 4 sizeof(long) 8 sizeof(void*) 8 sizeof(PetscScalar) 8 sizeof(PetscInt) 4
Configure options: --known-has-attribute-aligned=1 --download-chaco=0 --download-cmake=0 --download-hypre=0 --download-metis=1 --download-mumps=1 --download-parmetis=1 --download-plapack=0 --download-prometheus=0 --download-ptscotch=1 --download-spai=0 --download-spooles=0 --download-superlu=0 --download-superlu_dist=0 --download-triangle=0 --known-bits-per-byte=8 --known-level1-dcache-assoc=0 --known-level1-dcache-linesize=32 --known-level1-dcache-size=32768 --known-memcmp-ok=1 --known-mpi-c-double-complex=1 --known-mpi-int64_t=1 --known-mpi-long-double=1 --known-mpi-shared-libraries=0 --known-sdot-returns-double=0 --known-sizeof-MPI_Comm=4 --known-sizeof-MPI_Fint=4 --known-sizeof-char=1 --known-sizeof-double=8 --known-sizeof-float=4 --known-sizeof-int=4 --known-sizeof-long-long=8 --known-sizeof-long=8 --known-sizeof-short=2 --known-sizeof-size_t=8 --known-sizeof-void-p=8 --known-snrm2-returns-double=0 --with-batch=1 --with-blacs-include=/soft/libraries/alcf/current/xl/SCALAPACK/ --with-blacs-lib=/soft/libraries/alcf/current/xl/SCALAPACK/lib/libscalapack.a --with-blas-lapack-lib="-L/soft/libraries/alcf/current/xl/LAPACK/lib -llapack -L/soft/libraries/alcf/current/xl/BLAS/lib -lblas" --with-cc=mpixlc_r --with-clib-autodetect=0 --with-cxx=mpixlcxx_r --with-cxxlib-autodetect=0 --with-debugging=0 --with-fc="mpixlf77_r -qnosave" --with-fortran-kernels=1 --with-fortranlib-autodetect=0 --with-is-color-value-type=short --with-scalapack-include=/soft/libraries/alcf/current/xl/SCALAPACK/ --with-scalapack-lib=/soft/libraries/alcf/current/xl/SCALAPACK/lib/libscalapack.a --with-shared-libraries=0 --with-x=0 -COPTFLAGS=" -g -O3 -qhot=level=0 -qsimd=auto -qmaxmem=-1 -qstrict -qstrict_induction" -CXXOPTFLAGS="  -g -O3 -qhot=level=0 -qsimd=auto -qmaxmem=-1 -qstrict -qstrict_induction" -FOPTFLAGS=" -g -O3 -qhot=level=0 -qsimd=auto -qmaxmem=-1 -qstrict -qstrict_induction" LIBS="-lmpichcxx-gcc -lmpichf77-gcc -L/soft/compilers/ibmcmp-feb2015/vacpp/bg/12.1/bglib64 -libmc++ -L/soft/compilers/ibmcmp-feb2015/xlf/bg/14.1/bglib64 -lxlf90_r -lxlomp_ser -lxlfmath" PETSC_ARCH=arch-xl
-----------------------------------------
Libraries compiled on Sat Aug 20 04:19:47 2016 on vestalac2 
Machine characteristics: Linux-2.6.32-573.18.1.el6.ppc64-ppc64-with-redhat-6.7-Santiago
Using PETSc directory: /home/keceli/scratch2/petsc
Using PETSc arch: arch-xl
-----------------------------------------

Using C compiler: mpixlc_r   -g -O3 -qhot=level=0 -qsimd=auto -qmaxmem=-1 -qstrict -qstrict_induction  ${COPTFLAGS} ${CFLAGS}
Using Fortran compiler: mpixlf77_r -qnosave  -g -O3 -qhot=level=0 -qsimd=auto -qmaxmem=-1 -qstrict -qstrict_induction   ${FOPTFLAGS} ${FFLAGS} 
-----------------------------------------

Using include paths: -I/home/keceli/scratch2/petsc/arch-xl/include -I/home/keceli/scratch2/petsc/include -I/home/keceli/scratch2/petsc/include -I/home/keceli/scratch2/petsc/arch-xl/include -I/bgsys/drivers/V1R2M4/ppc64/comm/include -I/bgsys/drivers/V1R2M4/ppc64/comm/lib/xl -I/bgsys/drivers/V1R2M4/ppc64 -I/bgsys/drivers/V1R2M4/ppc64/comm/sys/include -I/bgsys/drivers/V1R2M4/ppc64/spi/include -I/bgsys/drivers/V1R2M4/ppc64/spi/include/kernel/cnk
-----------------------------------------

Using C linker: mpixlc_r
Using Fortran linker: mpixlf77_r -qnosave
Using libraries: -Wl,-rpath,/home/keceli/scratch2/petsc/arch-xl/lib -L/home/keceli/scratch2/petsc/arch-xl/lib -lpetsc -Wl,-rpath,/home/keceli/scratch2/petsc/arch-xl/lib -L/home/keceli/scratch2/petsc/arch-xl/lib -lcmumps -ldmumps -lsmumps -lzmumps -lmumps_common -lpord -Wl,-rpath,/soft/libraries/alcf/current/xl/SCALAPACK/lib -L/soft/libraries/alcf/current/xl/SCALAPACK/lib -lscalapack -L/soft/libraries/alcf/current/xl/LAPACK/lib -llapack -L/soft/libraries/alcf/current/xl/BLAS/lib -lblas -lparmetis -lmetis -lptesmumps -lptscotch -lptscotcherr -lscotch -lscotcherr -lrt -lm -lpthread -ldl -lmpichcxx-gcc -lmpichf77-gcc -L/soft/compilers/ibmcmp-feb2015/vacpp/bg/12.1/bglib64 -libmc++ -L/soft/compilers/ibmcmp-feb2015/xlf/bg/14.1/bglib64 -lxlf90_r -lxlomp_ser -lxlfmath
-----------------------------------------

