s.subSiesta: Submission time = 46s56m22h
s.subSiesta: Job name = qp64_s64_n8_c16_vesta
s.subSiesta: Number of nodes = 8
s.subSiesta: Number of cores = 128
s.subSiesta: Number of cores/node = 16
s.subSiesta: Number of slices = 64
s.subSiesta: Mapping = ABCDET
46s56m22h
#QETSc options
-ioptbin 7
-ioptdensity 0
-ioptinertia 1
-ioptleft 2
-ioptwrite 1 
#-roptbuffer 0.01
#-roptdiff 0.02

#PETSc options
-mat_type mpisbaij
-log_view
#-mat_view
#-memory_view
#-mat_mumps_icntl_13 1 #turn off scaLAPACK for matrix inertia
#-mat_mumps_icntl_24 1 #null pivot row detection for matrix inertia
-mat_mumps_icntl_23 0
#-mat_mumps_icntl_28 1 # serial analysis
#-mat_mumps_icntl_28 2 #parallel analysis
#-mat_mumps_icntl_29 1 #ptscotch
#-mat_mumps_icntl_29 2 #parmetis
-mat_mumps_icntl_7 5 #metis
#-malloc_info 
#-mat_view ::ascii_info 
#-mat_getrow_uppertriangular 1
#-st_type sinvert 
#-st_ksp_type preonly 
#-st_pc_type cholesky 
#-st_pc_factor_mat_solver_package mumps 

#SLEPc options

#-eps_krylovschur_partitions 1  
-eps_interval -2.3,0.
#-eps_tol  1.e-8
-eps_krylovschur_detect_zeros 0
#-eps_purify 1
SystemName          polyethylene
SystemLabel         polyethylene
NumberOfAtoms       6
NumberOfSpecies     2

%block ChemicalSpeciesLabel
 1  6  C
 2  1  H
%endblock ChemicalSpeciesLabel

DM.MixingWeight 0.3
DM.NumberPulay 3
#BlockSize 23
SolutionMethod  qetsc
WriteDM .false.
WriteDM.NetCDF .false.
WriteDMHS.NetCDF .false.
LongOutput .false.
#MaxSCFIterations 1

PAO.BasisType split
PAO.BasisSize DZP

LatticeConstant 1.00 Ang
%block LatticeVectors
20.000  0.000  0.000
 0.000 20.000  0.000
 0.000  0.000  2.572
%endblock LatticeVectors

%block kgrid_Monkhorst_Pack
1 0 0 0.0
0 1 0 0.0
0 0 1 0.0
%endblock kgrid_Monkhorst_Pack

%block SuperCell
1 0 0
0 1 0
0 0 64
%endblock SuperCell

AtomicCoordinatesFormat Ang
%block AtomicCoordinatesAndAtomicSpecies
  0.31237500000000001       0.28138740000000001       0.64300000000000002     1
   1.3964999999999999        7.3970400000000006E-002  0.64300000000000002     2
  0.21462000000000001        1.3794480000000002       0.64300000000000002     2
 -0.31237500000000001      -0.28138740000000001      -0.64300000000000002     1
  -1.3964999999999999       -7.3970400000000006E-002 -0.64300000000000002     2
 -0.21462000000000001       -1.3794480000000002      -0.64300000000000002     2
%endblock AtomicCoordinatesAndAtomicSpecies
Siesta Version: siesta-trunk-492
Architecture  : powerpc64-unknown-linux-gnu--Xlf
Compiler flags: mpixlf90_r -I/home/keceli/scratch2/petsc/include -I/home/keceli/scratch2/petssc/arch-xl/include -I/bgsys/drivers/V1R2M4/ppc64/comm/include -I/bgsys/drivers/V1R2M4/ppc64/comm/lib/xl -I/bgsys/drivers/V1R2M4/ppc64 -I/bgsys/drivers/V1R2M4/ppc64/comm/sys/include -I/bgsys/drivers/V1R2M4/ppc64/spi/include -I/bgsys/drivers/V1R2M4/ppc64/spi/include/kernel/cnk -I/home/keceli/scratch2/slepcfork/include -I/home/keceli/scratch2/slepcfork/arch-xl/include
PP flags      : -WF,-DMPI -WF,-DFC_HAVE_ABORT -WF,-DBSC_CELLXC -WF,-DMPI_TIMING 
PARALLEL version

* Running on  128 nodes in parallel
>> Start of run:   3-JAN-2017  22:58:44

                           ***********************       
                           *  WELCOME TO SIESTA  *       
                           ***********************       
WARNING: Siesta is reading its input from file INPUT_DEBUG

reinit: -----------------------------------------------------------------------
reinit: System Name: polyethylene
reinit: -----------------------------------------------------------------------
reinit: System Label: polyethylene                                                
reinit: -----------------------------------------------------------------------

initatom: Reading input for the pseudopotentials and atomic orbitals ----------
Species number:   1 Atomic number:    6 Label: C
Species number:   2 Atomic number:    1 Label: H
 
Ground state valence configuration:   2s02  2p02
Reading pseudopotential information in formatted form from C.psf

Valence configuration for pseudopotential generation:
2s( 2.00) rc: 1.54
2p( 2.00) rc: 1.54
3d( 0.00) rc: 1.54
4f( 0.00) rc: 1.54
Ground state valence configuration:   1s01
Reading pseudopotential information in formatted form from H.psf

Valence configuration for pseudopotential generation:
1s( 1.00) rc: 1.31
2p( 0.00) rc: 1.31
3d( 0.00) rc: 0.37
4f( 0.00) rc: 1.31
For C, standard SIESTA heuristics set lmxkb to 3
 (one more than the basis l, including polarization orbitals).
Use PS.lmax or PS.KBprojectors blocks to override.
For H, standard SIESTA heuristics set lmxkb to 2
 (one more than the basis l, including polarization orbitals).
Use PS.lmax or PS.KBprojectors blocks to override.

<basis_specs>
===============================================================================
C                    Z=   6    Mass=  12.010        Charge= 0.17977+309
Lmxo=1 Lmxkb= 3    BasisType=split      Semic=F
L=0  Nsemic=0  Cnfigmx=2
          n=1  nzeta=2  polorb=0
            splnorm:   0.15000    
               vcte:    0.0000    
               rinn:    0.0000    
               qcoe:    0.0000    
               qyuk:    0.0000    
               qwid:   0.10000E-01
                rcs:    0.0000      0.0000    
            lambdas:    1.0000      1.0000    
L=1  Nsemic=0  Cnfigmx=2
          n=1  nzeta=2  polorb=1
            splnorm:   0.15000    
               vcte:    0.0000    
               rinn:    0.0000    
               qcoe:    0.0000    
               qyuk:    0.0000    
               qwid:   0.10000E-01
                rcs:    0.0000      0.0000    
            lambdas:    1.0000      1.0000    
-------------------------------------------------------------------------------
L=0  Nkbl=1  erefs: 0.17977+309
L=1  Nkbl=1  erefs: 0.17977+309
L=2  Nkbl=1  erefs: 0.17977+309
L=3  Nkbl=1  erefs: 0.17977+309
===============================================================================
</basis_specs>

atom: Called for C                     (Z =   6)

read_vps: Pseudopotential generation method:
read_vps: ATM3      Troullier-Martins                       
Total valence charge:    4.00000

xc_check: Exchange-correlation functional:
xc_check: Ceperley-Alder
V l=0 = -2*Zval/r beyond r=  1.5227
V l=1 = -2*Zval/r beyond r=  1.5227
V l=2 = -2*Zval/r beyond r=  1.5227
V l=3 = -2*Zval/r beyond r=  1.5038
All V_l potentials equal beyond r=  1.5227
This should be close to max(r_c) in ps generation
All pots = -2*Zval/r beyond r=  1.5227

VLOCAL1: 99.0% of the norm of Vloc inside     18.722 Ry
VLOCAL1: 99.9% of the norm of Vloc inside     42.668 Ry
atom: Maximum radius for 4*pi*r*r*local-pseudopot. charge    1.83678
atom: Maximum radius for r*vlocal+2*Zval:    1.58088
GHOST: No ghost state for L =  0
GHOST: No ghost state for L =  1
GHOST: No ghost state for L =  2
GHOST: No ghost state for L =  3

KBgen: Kleinman-Bylander projectors: 
   l= 0   rc=  1.747182   el= -1.001948   Ekb=  4.950286   kbcos=  0.319819
   l= 1   rc=  1.747182   el= -0.398598   Ekb= -4.108613   kbcos= -0.367053
   l= 2   rc=  1.930978   el=  0.002326   Ekb= -1.042946   kbcos= -0.009366
   l= 3   rc=  2.055542   el=  0.003420   Ekb= -0.408633   kbcos= -0.001262

KBgen: Total number of  Kleinman-Bylander projectors:   16
atom: -------------------------------------------------------------------------

atom: SANKEY-TYPE ORBITALS:
atom: Selected multiple-zeta basis: split     

SPLIT: Orbitals with angular momentum L= 0

SPLIT: Basis orbitals for state 2s

SPLIT: PAO cut-off radius determined from an
SPLIT: energy shift=  0.020000 Ry

   izeta = 1
                 lambda =    1.000000
                     rc =    4.191849
                 energy =   -0.983897
                kinetic =    0.880927
    potential(screened) =   -1.864824
       potential(ionic) =   -5.475687

   izeta = 2
                 rmatch =    3.431921
              splitnorm =    0.150000
                 energy =   -0.853083
                kinetic =    1.298222
    potential(screened) =   -2.151305
       potential(ionic) =   -5.995890

SPLIT: Orbitals with angular momentum L= 1

SPLIT: Basis orbitals for state 2p

SPLIT: PAO cut-off radius determined from an
SPLIT: energy shift=  0.020000 Ry

   izeta = 1
                 lambda =    1.000000
                     rc =    4.870301
                 energy =   -0.379093
                kinetic =    2.540023
    potential(screened) =   -2.919116
       potential(ionic) =   -6.427960

   izeta = 2
                 rmatch =    3.475094
              splitnorm =    0.150000
                 energy =   -0.215057
                kinetic =    3.814571
    potential(screened) =   -4.029628
       potential(ionic) =   -7.920250

POLgen: Perturbative polarization orbital with L=  2

POLgen: Polarization orbital for state 2p

   izeta = 1
                     rc =    4.870301
                 energy =    1.280996
                kinetic =    2.631310
    potential(screened) =   -1.350314
       potential(ionic) =   -4.295640
atom: Total number of Sankey-type orbitals: 13

atm_pop: Valence configuration (for local Pseudopot. screening):
 2s( 2.00)                                                            
 2p( 2.00)                                                            
Vna: chval, zval:    4.00000   4.00000

Vna:  Cut-off radius for the neutral-atom potential:   4.870301

atom: _________________________________________________________________________

<basis_specs>
===============================================================================
H                    Z=   1    Mass=  1.0100        Charge= 0.17977+309
Lmxo=0 Lmxkb= 2    BasisType=split      Semic=F
L=0  Nsemic=0  Cnfigmx=1
          n=1  nzeta=2  polorb=1
            splnorm:   0.15000    
               vcte:    0.0000    
               rinn:    0.0000    
               qcoe:    0.0000    
               qyuk:    0.0000    
               qwid:   0.10000E-01
                rcs:    0.0000      0.0000    
            lambdas:    1.0000      1.0000    
-------------------------------------------------------------------------------
L=0  Nkbl=1  erefs: 0.17977+309
L=1  Nkbl=1  erefs: 0.17977+309
L=2  Nkbl=1  erefs: 0.17977+309
===============================================================================
</basis_specs>

atom: Called for H                     (Z =   1)

read_vps: Pseudopotential generation method:
read_vps: ATM3      Troullier-Martins                       
Total valence charge:    1.00000

xc_check: Exchange-correlation functional:
xc_check: Ceperley-Alder
V l=0 = -2*Zval/r beyond r=  1.2977
V l=1 = -2*Zval/r beyond r=  1.2815
V l=2 = -2*Zval/r beyond r=  1.1307
All V_l potentials equal beyond r=  1.2977
This should be close to max(r_c) in ps generation
All pots = -2*Zval/r beyond r=  1.2977

VLOCAL1: 99.0% of the norm of Vloc inside     25.776 Ry
VLOCAL1: 99.9% of the norm of Vloc inside     58.745 Ry
atom: Maximum radius for 4*pi*r*r*local-pseudopot. charge    1.52711
atom: Maximum radius for r*vlocal+2*Zval:    1.28155
GHOST: No ghost state for L =  0
GHOST: No ghost state for L =  1
GHOST: No ghost state for L =  2

KBgen: Kleinman-Bylander projectors: 
   l= 0   rc=  1.434438   el= -0.467325   Ekb= -1.940326   kbcos= -0.353040
   l= 1   rc=  1.508111   el=  0.001430   Ekb= -0.480826   kbcos= -0.024144
   l= 2   rc=  1.527112   el=  0.002365   Ekb= -0.479392   kbcos= -0.001656

KBgen: Total number of  Kleinman-Bylander projectors:    9
atom: -------------------------------------------------------------------------

atom: SANKEY-TYPE ORBITALS:
atom: Selected multiple-zeta basis: split     

SPLIT: Orbitals with angular momentum L= 0

SPLIT: Basis orbitals for state 1s

SPLIT: PAO cut-off radius determined from an
SPLIT: energy shift=  0.020000 Ry

   izeta = 1
                 lambda =    1.000000
                     rc =    4.828263
                 energy =   -0.449375
                kinetic =    0.925762
    potential(screened) =   -1.375137
       potential(ionic) =   -1.911235

   izeta = 2
                 rmatch =    3.854947
              splitnorm =    0.150000
                 energy =   -0.336149
                kinetic =    1.498089
    potential(screened) =   -1.834238
       potential(ionic) =   -2.406110

POLgen: Perturbative polarization orbital with L=  1

POLgen: Polarization orbital for state 1s

   izeta = 1
                     rc =    4.828263
                 energy =    0.707053
                kinetic =    1.398668
    potential(screened) =   -0.691614
       potential(ionic) =   -1.171973
atom: Total number of Sankey-type orbitals:  5

atm_pop: Valence configuration (for local Pseudopot. screening):
 1s( 1.00)                                                            
Vna: chval, zval:    1.00000   1.00000

Vna:  Cut-off radius for the neutral-atom potential:   4.828263

atom: _________________________________________________________________________

prinput: Basis input ----------------------------------------------------------

PAO.BasisType split     

%block ChemicalSpeciesLabel
    1    6 C                       # Species index, atomic number, species label
    2    1 H                       # Species index, atomic number, species label
%endblock ChemicalSpeciesLabel

%block PAO.Basis                 # Define Basis set
C                     2                    # Species label, number of l-shells
 n=2   0   2                         # n, l, Nzeta 
   4.192      3.432   
   1.000      1.000   
 n=2   1   2 P   1                   # n, l, Nzeta, Polarization, NzetaPol
   4.870      3.475   
   1.000      1.000   
H                     1                    # Species label, number of l-shells
 n=1   0   2 P   1                   # n, l, Nzeta, Polarization, NzetaPol
   4.828      3.855   
   1.000      1.000   
%endblock PAO.Basis

prinput: ----------------------------------------------------------------------

coor:   Atomic-coordinates input format  =     Cartesian coordinates
coor:                                          (in Angstroms)

siesta: Atomic coordinates (Bohr) and species
siesta:      0.59030   0.53175   1.21509  1        1
siesta:      2.63900   0.13978   1.21509  2        2
siesta:      0.40557   2.60678   1.21509  2        3
siesta:     -0.59030  -0.53175  -1.21509  1        4
siesta:     -2.63900  -0.13978  -1.21509  2        5
siesta:     -0.40557  -2.60678  -1.21509  2        6
siesta:      0.59030   0.53175   6.07547  1        7
siesta:      2.63900   0.13978   6.07547  2        8
siesta:      0.40557   2.60678   6.07547  2        9
siesta:     -0.59030  -0.53175   3.64528  1       10
siesta:     -2.63900  -0.13978   3.64528  2       11
siesta:     -0.40557  -2.60678   3.64528  2       12
siesta:      0.59030   0.53175  10.93585  1       13
siesta:      2.63900   0.13978  10.93585  2       14
siesta:      0.40557   2.60678  10.93585  2       15
siesta:     -0.59030  -0.53175   8.50566  1       16
siesta:     -2.63900  -0.13978   8.50566  2       17
siesta:     -0.40557  -2.60678   8.50566  2       18
siesta:      0.59030   0.53175  15.79623  1       19
siesta:      2.63900   0.13978  15.79623  2       20
siesta:      0.40557   2.60678  15.79623  2       21
siesta:     -0.59030  -0.53175  13.36604  1       22
siesta:     -2.63900  -0.13978  13.36604  2       23
siesta:     -0.40557  -2.60678  13.36604  2       24
siesta:      0.59030   0.53175  20.65660  1       25
siesta:      2.63900   0.13978  20.65660  2       26
siesta:      0.40557   2.60678  20.65660  2       27
siesta:     -0.59030  -0.53175  18.22642  1       28
siesta:     -2.63900  -0.13978  18.22642  2       29
siesta:     -0.40557  -2.60678  18.22642  2       30
siesta:      0.59030   0.53175  25.51698  1       31
siesta:      2.63900   0.13978  25.51698  2       32
siesta:      0.40557   2.60678  25.51698  2       33
siesta:     -0.59030  -0.53175  23.08679  1       34
siesta:     -2.63900  -0.13978  23.08679  2       35
siesta:     -0.40557  -2.60678  23.08679  2       36
siesta:      0.59030   0.53175  30.37736  1       37
siesta:      2.63900   0.13978  30.37736  2       38
siesta:      0.40557   2.60678  30.37736  2       39
siesta:     -0.59030  -0.53175  27.94717  1       40
siesta:     -2.63900  -0.13978  27.94717  2       41
siesta:     -0.40557  -2.60678  27.94717  2       42
siesta:      0.59030   0.53175  35.23774  1       43
siesta:      2.63900   0.13978  35.23774  2       44
siesta:      0.40557   2.60678  35.23774  2       45
siesta:     -0.59030  -0.53175  32.80755  1       46
siesta:     -2.63900  -0.13978  32.80755  2       47
siesta:     -0.40557  -2.60678  32.80755  2       48
siesta:      0.59030   0.53175  40.09811  1       49
siesta:      2.63900   0.13978  40.09811  2       50
siesta:      0.40557   2.60678  40.09811  2       51
siesta:     -0.59030  -0.53175  37.66793  1       52
siesta:     -2.63900  -0.13978  37.66793  2       53
siesta:     -0.40557  -2.60678  37.66793  2       54
siesta:      0.59030   0.53175  44.95849  1       55
siesta:      2.63900   0.13978  44.95849  2       56
siesta:      0.40557   2.60678  44.95849  2       57
siesta:     -0.59030  -0.53175  42.52830  1       58
siesta:     -2.63900  -0.13978  42.52830  2       59
siesta:     -0.40557  -2.60678  42.52830  2       60
siesta:      0.59030   0.53175  49.81887  1       61
siesta:      2.63900   0.13978  49.81887  2       62
siesta:      0.40557   2.60678  49.81887  2       63
siesta:     -0.59030  -0.53175  47.38868  1       64
siesta:     -2.63900  -0.13978  47.38868  2       65
siesta:     -0.40557  -2.60678  47.38868  2       66
siesta:      0.59030   0.53175  54.67925  1       67
siesta:      2.63900   0.13978  54.67925  2       68
siesta:      0.40557   2.60678  54.67925  2       69
siesta:     -0.59030  -0.53175  52.24906  1       70
siesta:     -2.63900  -0.13978  52.24906  2       71
siesta:     -0.40557  -2.60678  52.24906  2       72
siesta:      0.59030   0.53175  59.53962  1       73
siesta:      2.63900   0.13978  59.53962  2       74
siesta:      0.40557   2.60678  59.53962  2       75
siesta:     -0.59030  -0.53175  57.10944  1       76
siesta:     -2.63900  -0.13978  57.10944  2       77
siesta:     -0.40557  -2.60678  57.10944  2       78
siesta:      0.59030   0.53175  64.40000  1       79
siesta:      2.63900   0.13978  64.40000  2       80
siesta:      0.40557   2.60678  64.40000  2       81
siesta:     -0.59030  -0.53175  61.96981  1       82
siesta:     -2.63900  -0.13978  61.96981  2       83
siesta:     -0.40557  -2.60678  61.96981  2       84
siesta:      0.59030   0.53175  69.26038  1       85
siesta:      2.63900   0.13978  69.26038  2       86
siesta:      0.40557   2.60678  69.26038  2       87
siesta:     -0.59030  -0.53175  66.83019  1       88
siesta:     -2.63900  -0.13978  66.83019  2       89
siesta:     -0.40557  -2.60678  66.83019  2       90
siesta:      0.59030   0.53175  74.12076  1       91
siesta:      2.63900   0.13978  74.12076  2       92
siesta:      0.40557   2.60678  74.12076  2       93
siesta:     -0.59030  -0.53175  71.69057  1       94
siesta:     -2.63900  -0.13978  71.69057  2       95
siesta:     -0.40557  -2.60678  71.69057  2       96
siesta:      0.59030   0.53175  78.98113  1       97
siesta:      2.63900   0.13978  78.98113  2       98
siesta:      0.40557   2.60678  78.98113  2       99
siesta:     -0.59030  -0.53175  76.55095  1      100
siesta:     -2.63900  -0.13978  76.55095  2      101
siesta:     -0.40557  -2.60678  76.55095  2      102
siesta:      0.59030   0.53175  83.84151  1      103
siesta:      2.63900   0.13978  83.84151  2      104
siesta:      0.40557   2.60678  83.84151  2      105
siesta:     -0.59030  -0.53175  81.41132  1      106
siesta:     -2.63900  -0.13978  81.41132  2      107
siesta:     -0.40557  -2.60678  81.41132  2      108
siesta:      0.59030   0.53175  88.70189  1      109
siesta:      2.63900   0.13978  88.70189  2      110
siesta:      0.40557   2.60678  88.70189  2      111
siesta:     -0.59030  -0.53175  86.27170  1      112
siesta:     -2.63900  -0.13978  86.27170  2      113
siesta:     -0.40557  -2.60678  86.27170  2      114
siesta:      0.59030   0.53175  93.56227  1      115
siesta:      2.63900   0.13978  93.56227  2      116
siesta:      0.40557   2.60678  93.56227  2      117
siesta:     -0.59030  -0.53175  91.13208  1      118
siesta:     -2.63900  -0.13978  91.13208  2      119
siesta:     -0.40557  -2.60678  91.13208  2      120
siesta:      0.59030   0.53175  98.42264  1      121
siesta:      2.63900   0.13978  98.42264  2      122
siesta:      0.40557   2.60678  98.42264  2      123
siesta:     -0.59030  -0.53175  95.99246  1      124
siesta:     -2.63900  -0.13978  95.99246  2      125
siesta:     -0.40557  -2.60678  95.99246  2      126
siesta:      0.59030   0.53175 103.28302  1      127
siesta:      2.63900   0.13978 103.28302  2      128
siesta:      0.40557   2.60678 103.28302  2      129
siesta:     -0.59030  -0.53175 100.85283  1      130
siesta:     -2.63900  -0.13978 100.85283  2      131
siesta:     -0.40557  -2.60678 100.85283  2      132
siesta:      0.59030   0.53175 108.14340  1      133
siesta:      2.63900   0.13978 108.14340  2      134
siesta:      0.40557   2.60678 108.14340  2      135
siesta:     -0.59030  -0.53175 105.71321  1      136
siesta:     -2.63900  -0.13978 105.71321  2      137
siesta:     -0.40557  -2.60678 105.71321  2      138
siesta:      0.59030   0.53175 113.00378  1      139
siesta:      2.63900   0.13978 113.00378  2      140
siesta:      0.40557   2.60678 113.00378  2      141
siesta:     -0.59030  -0.53175 110.57359  1      142
siesta:     -2.63900  -0.13978 110.57359  2      143
siesta:     -0.40557  -2.60678 110.57359  2      144
siesta:      0.59030   0.53175 117.86416  1      145
siesta:      2.63900   0.13978 117.86416  2      146
siesta:      0.40557   2.60678 117.86416  2      147
siesta:     -0.59030  -0.53175 115.43397  1      148
siesta:     -2.63900  -0.13978 115.43397  2      149
siesta:     -0.40557  -2.60678 115.43397  2      150
siesta:      0.59030   0.53175 122.72453  1      151
siesta:      2.63900   0.13978 122.72453  2      152
siesta:      0.40557   2.60678 122.72453  2      153
siesta:     -0.59030  -0.53175 120.29434  1      154
siesta:     -2.63900  -0.13978 120.29434  2      155
siesta:     -0.40557  -2.60678 120.29434  2      156
siesta:      0.59030   0.53175 127.58491  1      157
siesta:      2.63900   0.13978 127.58491  2      158
siesta:      0.40557   2.60678 127.58491  2      159
siesta:     -0.59030  -0.53175 125.15472  1      160
siesta:     -2.63900  -0.13978 125.15472  2      161
siesta:     -0.40557  -2.60678 125.15472  2      162
siesta:      0.59030   0.53175 132.44529  1      163
siesta:      2.63900   0.13978 132.44529  2      164
siesta:      0.40557   2.60678 132.44529  2      165
siesta:     -0.59030  -0.53175 130.01510  1      166
siesta:     -2.63900  -0.13978 130.01510  2      167
siesta:     -0.40557  -2.60678 130.01510  2      168
siesta:      0.59030   0.53175 137.30567  1      169
siesta:      2.63900   0.13978 137.30567  2      170
siesta:      0.40557   2.60678 137.30567  2      171
siesta:     -0.59030  -0.53175 134.87548  1      172
siesta:     -2.63900  -0.13978 134.87548  2      173
siesta:     -0.40557  -2.60678 134.87548  2      174
siesta:      0.59030   0.53175 142.16604  1      175
siesta:      2.63900   0.13978 142.16604  2      176
siesta:      0.40557   2.60678 142.16604  2      177
siesta:     -0.59030  -0.53175 139.73585  1      178
siesta:     -2.63900  -0.13978 139.73585  2      179
siesta:     -0.40557  -2.60678 139.73585  2      180
siesta:      0.59030   0.53175 147.02642  1      181
siesta:      2.63900   0.13978 147.02642  2      182
siesta:      0.40557   2.60678 147.02642  2      183
siesta:     -0.59030  -0.53175 144.59623  1      184
siesta:     -2.63900  -0.13978 144.59623  2      185
siesta:     -0.40557  -2.60678 144.59623  2      186
siesta:      0.59030   0.53175 151.88680  1      187
siesta:      2.63900   0.13978 151.88680  2      188
siesta:      0.40557   2.60678 151.88680  2      189
siesta:     -0.59030  -0.53175 149.45661  1      190
siesta:     -2.63900  -0.13978 149.45661  2      191
siesta:     -0.40557  -2.60678 149.45661  2      192
siesta:      0.59030   0.53175 156.74718  1      193
siesta:      2.63900   0.13978 156.74718  2      194
siesta:      0.40557   2.60678 156.74718  2      195
siesta:     -0.59030  -0.53175 154.31699  1      196
siesta:     -2.63900  -0.13978 154.31699  2      197
siesta:     -0.40557  -2.60678 154.31699  2      198
siesta:      0.59030   0.53175 161.60755  1      199
siesta:      2.63900   0.13978 161.60755  2      200
siesta:      0.40557   2.60678 161.60755  2      201
siesta:     -0.59030  -0.53175 159.17736  1      202
siesta:     -2.63900  -0.13978 159.17736  2      203
siesta:     -0.40557  -2.60678 159.17736  2      204
siesta:      0.59030   0.53175 166.46793  1      205
siesta:      2.63900   0.13978 166.46793  2      206
siesta:      0.40557   2.60678 166.46793  2      207
siesta:     -0.59030  -0.53175 164.03774  1      208
siesta:     -2.63900  -0.13978 164.03774  2      209
siesta:     -0.40557  -2.60678 164.03774  2      210
siesta:      0.59030   0.53175 171.32831  1      211
siesta:      2.63900   0.13978 171.32831  2      212
siesta:      0.40557   2.60678 171.32831  2      213
siesta:     -0.59030  -0.53175 168.89812  1      214
siesta:     -2.63900  -0.13978 168.89812  2      215
siesta:     -0.40557  -2.60678 168.89812  2      216
siesta:      0.59030   0.53175 176.18869  1      217
siesta:      2.63900   0.13978 176.18869  2      218
siesta:      0.40557   2.60678 176.18869  2      219
siesta:     -0.59030  -0.53175 173.75850  1      220
siesta:     -2.63900  -0.13978 173.75850  2      221
siesta:     -0.40557  -2.60678 173.75850  2      222
siesta:      0.59030   0.53175 181.04906  1      223
siesta:      2.63900   0.13978 181.04906  2      224
siesta:      0.40557   2.60678 181.04906  2      225
siesta:     -0.59030  -0.53175 178.61887  1      226
siesta:     -2.63900  -0.13978 178.61887  2      227
siesta:     -0.40557  -2.60678 178.61887  2      228
siesta:      0.59030   0.53175 185.90944  1      229
siesta:      2.63900   0.13978 185.90944  2      230
siesta:      0.40557   2.60678 185.90944  2      231
siesta:     -0.59030  -0.53175 183.47925  1      232
siesta:     -2.63900  -0.13978 183.47925  2      233
siesta:     -0.40557  -2.60678 183.47925  2      234
siesta:      0.59030   0.53175 190.76982  1      235
siesta:      2.63900   0.13978 190.76982  2      236
siesta:      0.40557   2.60678 190.76982  2      237
siesta:     -0.59030  -0.53175 188.33963  1      238
siesta:     -2.63900  -0.13978 188.33963  2      239
siesta:     -0.40557  -2.60678 188.33963  2      240
siesta:      0.59030   0.53175 195.63020  1      241
siesta:      2.63900   0.13978 195.63020  2      242
siesta:      0.40557   2.60678 195.63020  2      243
siesta:     -0.59030  -0.53175 193.20001  1      244
siesta:     -2.63900  -0.13978 193.20001  2      245
siesta:     -0.40557  -2.60678 193.20001  2      246
siesta:      0.59030   0.53175 200.49057  1      247
siesta:      2.63900   0.13978 200.49057  2      248
siesta:      0.40557   2.60678 200.49057  2      249
siesta:     -0.59030  -0.53175 198.06038  1      250
siesta:     -2.63900  -0.13978 198.06038  2      251
siesta:     -0.40557  -2.60678 198.06038  2      252
siesta:      0.59030   0.53175 205.35095  1      253
siesta:      2.63900   0.13978 205.35095  2      254
siesta:      0.40557   2.60678 205.35095  2      255
siesta:     -0.59030  -0.53175 202.92076  1      256
siesta:     -2.63900  -0.13978 202.92076  2      257
siesta:     -0.40557  -2.60678 202.92076  2      258
siesta:      0.59030   0.53175 210.21133  1      259
siesta:      2.63900   0.13978 210.21133  2      260
siesta:      0.40557   2.60678 210.21133  2      261
siesta:     -0.59030  -0.53175 207.78114  1      262
siesta:     -2.63900  -0.13978 207.78114  2      263
siesta:     -0.40557  -2.60678 207.78114  2      264
siesta:      0.59030   0.53175 215.07171  1      265
siesta:      2.63900   0.13978 215.07171  2      266
siesta:      0.40557   2.60678 215.07171  2      267
siesta:     -0.59030  -0.53175 212.64152  1      268
siesta:     -2.63900  -0.13978 212.64152  2      269
siesta:     -0.40557  -2.60678 212.64152  2      270
siesta:      0.59030   0.53175 219.93208  1      271
siesta:      2.63900   0.13978 219.93208  2      272
siesta:      0.40557   2.60678 219.93208  2      273
siesta:     -0.59030  -0.53175 217.50189  1      274
siesta:     -2.63900  -0.13978 217.50189  2      275
siesta:     -0.40557  -2.60678 217.50189  2      276
siesta:      0.59030   0.53175 224.79246  1      277
siesta:      2.63900   0.13978 224.79246  2      278
siesta:      0.40557   2.60678 224.79246  2      279
siesta:     -0.59030  -0.53175 222.36227  1      280
siesta:     -2.63900  -0.13978 222.36227  2      281
siesta:     -0.40557  -2.60678 222.36227  2      282
siesta:      0.59030   0.53175 229.65284  1      283
siesta:      2.63900   0.13978 229.65284  2      284
siesta:      0.40557   2.60678 229.65284  2      285
siesta:     -0.59030  -0.53175 227.22265  1      286
siesta:     -2.63900  -0.13978 227.22265  2      287
siesta:     -0.40557  -2.60678 227.22265  2      288
siesta:      0.59030   0.53175 234.51322  1      289
siesta:      2.63900   0.13978 234.51322  2      290
siesta:      0.40557   2.60678 234.51322  2      291
siesta:     -0.59030  -0.53175 232.08303  1      292
siesta:     -2.63900  -0.13978 232.08303  2      293
siesta:     -0.40557  -2.60678 232.08303  2      294
siesta:      0.59030   0.53175 239.37359  1      295
siesta:      2.63900   0.13978 239.37359  2      296
siesta:      0.40557   2.60678 239.37359  2      297
siesta:     -0.59030  -0.53175 236.94340  1      298
siesta:     -2.63900  -0.13978 236.94340  2      299
siesta:     -0.40557  -2.60678 236.94340  2      300
siesta:      0.59030   0.53175 244.23397  1      301
siesta:      2.63900   0.13978 244.23397  2      302
siesta:      0.40557   2.60678 244.23397  2      303
siesta:     -0.59030  -0.53175 241.80378  1      304
siesta:     -2.63900  -0.13978 241.80378  2      305
siesta:     -0.40557  -2.60678 241.80378  2      306
siesta:      0.59030   0.53175 249.09435  1      307
siesta:      2.63900   0.13978 249.09435  2      308
siesta:      0.40557   2.60678 249.09435  2      309
siesta:     -0.59030  -0.53175 246.66416  1      310
siesta:     -2.63900  -0.13978 246.66416  2      311
siesta:     -0.40557  -2.60678 246.66416  2      312
siesta:      0.59030   0.53175 253.95473  1      313
siesta:      2.63900   0.13978 253.95473  2      314
siesta:      0.40557   2.60678 253.95473  2      315
siesta:     -0.59030  -0.53175 251.52454  1      316
siesta:     -2.63900  -0.13978 251.52454  2      317
siesta:     -0.40557  -2.60678 251.52454  2      318
siesta:      0.59030   0.53175 258.81510  1      319
siesta:      2.63900   0.13978 258.81510  2      320
siesta:      0.40557   2.60678 258.81510  2      321
siesta:     -0.59030  -0.53175 256.38491  1      322
siesta:     -2.63900  -0.13978 256.38491  2      323
siesta:     -0.40557  -2.60678 256.38491  2      324
siesta:      0.59030   0.53175 263.67548  1      325
siesta:      2.63900   0.13978 263.67548  2      326
siesta:      0.40557   2.60678 263.67548  2      327
siesta:     -0.59030  -0.53175 261.24529  1      328
siesta:     -2.63900  -0.13978 261.24529  2      329
siesta:     -0.40557  -2.60678 261.24529  2      330
siesta:      0.59030   0.53175 268.53586  1      331
siesta:      2.63900   0.13978 268.53586  2      332
siesta:      0.40557   2.60678 268.53586  2      333
siesta:     -0.59030  -0.53175 266.10567  1      334
siesta:     -2.63900  -0.13978 266.10567  2      335
siesta:     -0.40557  -2.60678 266.10567  2      336
siesta:      0.59030   0.53175 273.39624  1      337
siesta:      2.63900   0.13978 273.39624  2      338
siesta:      0.40557   2.60678 273.39624  2      339
siesta:     -0.59030  -0.53175 270.96605  1      340
siesta:     -2.63900  -0.13978 270.96605  2      341
siesta:     -0.40557  -2.60678 270.96605  2      342
siesta:      0.59030   0.53175 278.25661  1      343
siesta:      2.63900   0.13978 278.25661  2      344
siesta:      0.40557   2.60678 278.25661  2      345
siesta:     -0.59030  -0.53175 275.82642  1      346
siesta:     -2.63900  -0.13978 275.82642  2      347
siesta:     -0.40557  -2.60678 275.82642  2      348
siesta:      0.59030   0.53175 283.11699  1      349
siesta:      2.63900   0.13978 283.11699  2      350
siesta:      0.40557   2.60678 283.11699  2      351
siesta:     -0.59030  -0.53175 280.68680  1      352
siesta:     -2.63900  -0.13978 280.68680  2      353
siesta:     -0.40557  -2.60678 280.68680  2      354
siesta:      0.59030   0.53175 287.97737  1      355
siesta:      2.63900   0.13978 287.97737  2      356
siesta:      0.40557   2.60678 287.97737  2      357
siesta:     -0.59030  -0.53175 285.54718  1      358
siesta:     -2.63900  -0.13978 285.54718  2      359
siesta:     -0.40557  -2.60678 285.54718  2      360
siesta:      0.59030   0.53175 292.83775  1      361
siesta:      2.63900   0.13978 292.83775  2      362
siesta:      0.40557   2.60678 292.83775  2      363
siesta:     -0.59030  -0.53175 290.40756  1      364
siesta:     -2.63900  -0.13978 290.40756  2      365
siesta:     -0.40557  -2.60678 290.40756  2      366
siesta:      0.59030   0.53175 297.69812  1      367
siesta:      2.63900   0.13978 297.69812  2      368
siesta:      0.40557   2.60678 297.69812  2      369
siesta:     -0.59030  -0.53175 295.26793  1      370
siesta:     -2.63900  -0.13978 295.26793  2      371
siesta:     -0.40557  -2.60678 295.26793  2      372
siesta:      0.59030   0.53175 302.55850  1      373
siesta:      2.63900   0.13978 302.55850  2      374
siesta:      0.40557   2.60678 302.55850  2      375
siesta:     -0.59030  -0.53175 300.12831  1      376
siesta:     -2.63900  -0.13978 300.12831  2      377
siesta:     -0.40557  -2.60678 300.12831  2      378
siesta:      0.59030   0.53175 307.41888  1      379
siesta:      2.63900   0.13978 307.41888  2      380
siesta:      0.40557   2.60678 307.41888  2      381
siesta:     -0.59030  -0.53175 304.98869  1      382
siesta:     -2.63900  -0.13978 304.98869  2      383
siesta:     -0.40557  -2.60678 304.98869  2      384

siesta: System type = chain     

initatomlists: Number of atoms, orbitals, and projectors:    384  2944  4352

siesta: ******************** Simulation parameters ****************************
siesta:
siesta: The following are some of the parameters of the simulation.
siesta: A complete list of the parameters used, including default values,
siesta: can be found in file out.fdf
siesta:
redata: Non-Collinear-spin run           =     F
redata: SpinPolarized (Up/Down) run      =     F
redata: Number of spin components        =     1
redata: Long output                      =     F
redata: Number of Atomic Species         =        2
redata: Charge density info will appear in .RHO file
redata: Write Mulliken Pop.              =     NO
redata: Mesh Cutoff                      =   100.0000  Ry
redata: Net charge of the system         =     0.0000 |e|
redata: Min. number of SCF Iter          =        0
redata: Max. number of SCF Iter          =       50
redata: Mix DM or H after convergence    =     F
redata: Recompute H after scf cycle      =     F
redata: Performing Pulay mixing using    =     3 iterations
redata: Mix DM in first SCF step ?       =     F
redata: Write Pulay info on disk?        =     F
redata: Discard 1st Pulay DM after  kick =     F
redata: New DM Mixing Weight             =     0.3000
redata: New DM Occupancy tolerance       = 0.000000000001
redata: No kicks to SCF
redata: DM Mixing Weight for Kicks       =     0.5000
redata: DM Tolerance for SCF             =     0.000100
redata: Require (free) Energy convergence in SCF =     F
redata: DM (free)Energy tolerance for SCF =     0.000010 eV
redata: Require Harris convergence for SCF =     F
redata: DM Harris energy tolerance for SCF =     0.000010 eV
redata: Using Saved Data (generic)   =     F
redata: Use continuation files for DM    =     F
redata: Neglect nonoverlap interactions  =     F
redata: Method of Calculation            =     QETSc
redata: Fix the spin of the system       =     F
redata: Dynamics option                  =     Single-point calculation
redata: ***********************************************************************
Total number of electrons:   768.000000
Total ionic charge:   768.000000

* ProcessorY, Blocksize:    8  23


* Orbital distribution balance (max,min):    23    23

 Kpoints in:  1 . Kpoints trimmed:  1

siesta: k-grid: Number of k-points =     1
siesta: k-grid: Cutoff (effective) =    10.000 Ang
siesta: k-grid: Supercell and displacements
siesta: k-grid:    1   0   0      0.000
siesta: k-grid:    0   1   0      0.000
siesta: k-grid:    0   0   1      0.000

                     ====================================
                        Single-point calculation
                     ====================================

outcell: Unit cell vectors (Ang):
       20.000000    0.000000    0.000000
        0.000000   20.000000    0.000000
        0.000000    0.000000  164.608000

outcell: Cell vector modules (Ang)   :   20.000000   20.000000  164.608000
outcell: Cell angles (23,13,12) (deg):     90.0000     90.0000     90.0000
outcell: Cell volume (Ang**3)        :  65843.2000
New_DM. Step:     1
Initializing Density Matrix...
New grid distribution:   1
           1       1:   64    1:    8    1:   32
           2       1:   64    1:    8   33:   64
           3       1:   64    1:    8   65:   96
           4       1:   64    1:    8   97:  128
           5       1:   64    1:    8  129:  159
           6       1:   64    1:    8  160:  190
           7       1:   64    1:    8  191:  221
           8       1:   64    1:    8  222:  252
           9       1:   64    1:    8  253:  283
          10       1:   64    1:    8  284:  314
          11       1:   64    1:    8  315:  345
          12       1:   64    1:    8  346:  376
          13       1:   64    1:    8  377:  407
          14       1:   64    1:    8  408:  438
          15       1:   64    1:    8  439:  469
          16       1:   64    1:    8  470:  500
          17       1:   64    9:   16    1:   32
          18       1:   64    9:   16   33:   64
          19       1:   64    9:   16   65:   96
          20       1:   64    9:   16   97:  128
          21       1:   64    9:   16  129:  159
          22       1:   64    9:   16  160:  190
          23       1:   64    9:   16  191:  221
          24       1:   64    9:   16  222:  252
          25       1:   64    9:   16  253:  283
          26       1:   64    9:   16  284:  314
          27       1:   64    9:   16  315:  345
          28       1:   64    9:   16  346:  376
          29       1:   64    9:   16  377:  407
          30       1:   64    9:   16  408:  438
          31       1:   64    9:   16  439:  469
          32       1:   64    9:   16  470:  500
          33       1:   64   17:   24    1:   32
          34       1:   64   17:   24   33:   64
          35       1:   64   17:   24   65:   96
          36       1:   64   17:   24   97:  128
          37       1:   64   17:   24  129:  159
          38       1:   64   17:   24  160:  190
          39       1:   64   17:   24  191:  221
          40       1:   64   17:   24  222:  252
          41       1:   64   17:   24  253:  283
          42       1:   64   17:   24  284:  314
          43       1:   64   17:   24  315:  345
          44       1:   64   17:   24  346:  376
          45       1:   64   17:   24  377:  407
          46       1:   64   17:   24  408:  438
          47       1:   64   17:   24  439:  469
          48       1:   64   17:   24  470:  500
          49       1:   64   25:   32    1:   32
          50       1:   64   25:   32   33:   64
          51       1:   64   25:   32   65:   96
          52       1:   64   25:   32   97:  128
          53       1:   64   25:   32  129:  159
          54       1:   64   25:   32  160:  190
          55       1:   64   25:   32  191:  221
          56       1:   64   25:   32  222:  252
          57       1:   64   25:   32  253:  283
          58       1:   64   25:   32  284:  314
          59       1:   64   25:   32  315:  345
          60       1:   64   25:   32  346:  376
          61       1:   64   25:   32  377:  407
          62       1:   64   25:   32  408:  438
          63       1:   64   25:   32  439:  469
          64       1:   64   25:   32  470:  500
          65       1:   64   33:   40    1:   32
          66       1:   64   33:   40   33:   64
          67       1:   64   33:   40   65:   96
          68       1:   64   33:   40   97:  128
          69       1:   64   33:   40  129:  159
          70       1:   64   33:   40  160:  190
          71       1:   64   33:   40  191:  221
          72       1:   64   33:   40  222:  252
          73       1:   64   33:   40  253:  283
          74       1:   64   33:   40  284:  314
          75       1:   64   33:   40  315:  345
          76       1:   64   33:   40  346:  376
          77       1:   64   33:   40  377:  407
          78       1:   64   33:   40  408:  438
          79       1:   64   33:   40  439:  469
          80       1:   64   33:   40  470:  500
          81       1:   64   41:   48    1:   32
          82       1:   64   41:   48   33:   64
          83       1:   64   41:   48   65:   96
          84       1:   64   41:   48   97:  128
          85       1:   64   41:   48  129:  159
          86       1:   64   41:   48  160:  190
          87       1:   64   41:   48  191:  221
          88       1:   64   41:   48  222:  252
          89       1:   64   41:   48  253:  283
          90       1:   64   41:   48  284:  314
          91       1:   64   41:   48  315:  345
          92       1:   64   41:   48  346:  376
          93       1:   64   41:   48  377:  407
          94       1:   64   41:   48  408:  438
          95       1:   64   41:   48  439:  469
          96       1:   64   41:   48  470:  500
          97       1:   64   49:   56    1:   32
          98       1:   64   49:   56   33:   64
          99       1:   64   49:   56   65:   96
         100       1:   64   49:   56   97:  128
         101       1:   64   49:   56  129:  159
         102       1:   64   49:   56  160:  190
         103       1:   64   49:   56  191:  221
         104       1:   64   49:   56  222:  252
         105       1:   64   49:   56  253:  283
         106       1:   64   49:   56  284:  314
         107       1:   64   49:   56  315:  345
         108       1:   64   49:   56  346:  376
         109       1:   64   49:   56  377:  407
         110       1:   64   49:   56  408:  438
         111       1:   64   49:   56  439:  469
         112       1:   64   49:   56  470:  500
         113       1:   64   57:   64    1:   32
         114       1:   64   57:   64   33:   64
         115       1:   64   57:   64   65:   96
         116       1:   64   57:   64   97:  128
         117       1:   64   57:   64  129:  159
         118       1:   64   57:   64  160:  190
         119       1:   64   57:   64  191:  221
         120       1:   64   57:   64  222:  252
         121       1:   64   57:   64  253:  283
         122       1:   64   57:   64  284:  314
         123       1:   64   57:   64  315:  345
         124       1:   64   57:   64  346:  376
         125       1:   64   57:   64  377:  407
         126       1:   64   57:   64  408:  438
         127       1:   64   57:   64  439:  469
         128       1:   64   57:   64  470:  500

InitMesh: MESH =   128 x   128 x  1000 =    16384000
InitMesh: (bp) =    64 x    64 x   500 =     2048000
InitMesh: Mesh cutoff (required, used) =   100.000   102.000 Ry
ExtMesh (bp) on 0 =   100 x    44 x    64 =      281600
New grid distribution:   2
           1       8:   64    8:   64   17:   31
           2       8:   64    1:    7  298:  313
           3       8:   64    1:    7  189:  204
           4       1:    7    1:    7  454:  469
           5       1:    7    1:    7  470:  485
           6       8:   64    1:    7  173:  188
           7       8:   64    8:   64  189:  203
           8       8:   64    1:    7  251:  266
           9       8:   64    1:    7  267:  282
          10       8:   64    1:    7  235:  250
          11       1:    7    1:    7   79:   94
          12       8:   64    8:   64  361:  375
          13       8:   64    1:    7   17:   32
          14       1:    7    1:    7  423:  438
          15       8:   64    8:   64  439:  453
          16       8:   64    1:    7  485:  500
          17       8:   64    8:   64    1:   16
          18       1:    7    8:   64   32:   47
          19       1:    7    8:   64   64:   79
          20       1:    7    1:    7  220:  235
          21       8:   64    8:   64  126:  141
          22       1:    7    8:   64  173:  188
          23       1:    7    1:    7  204:  219
          24       1:    7    8:   64  235:  250
          25       1:    7    8:   64  266:  281
          26       8:   64    1:    7  330:  344
          27       1:    7    1:    7  267:  282
          28       8:   64    8:   64  345:  360
          29       8:   64    8:   64  376:  391
          30       1:    7    8:   64  407:  422
          31       1:    7    8:   64  439:  454
          32       1:    7    1:    7  251:  266
          33       8:   64    1:    7  360:  375
          34       8:   64    8:   64   32:   47
          35       1:    7    1:    7  126:  141
          36       1:    7    8:   64  110:  125
          37       8:   64    1:    7  408:  422
          38       8:   64    8:   64  173:  188
          39       1:    7    8:   64  189:  204
          40       1:    7    1:    7  142:  157
          41       1:    7    1:    7   95:  110
          42       1:    7    8:   64  282:  297
          43       8:   64    8:   64  329:  344
          44       1:    7    8:   64  345:  359
          45       8:   64    1:    7  158:  172
          46       8:   64    8:   64  423:  438
          47       1:    7    1:    7  173:  188
          48       1:    7    8:   64  485:  500
          49       8:   64    1:    7  392:  407
          50       8:   64    8:   64   48:   63
          51       1:    7    1:    7   17:   32
          52       1:    7    8:   64   95:  109
          53       8:   64    1:    7  376:  391
          54       8:   64    1:    7  345:  359
          55       8:   64    8:   64  204:  219
          56       1:    7    1:    7  376:  391
          57       8:   64    1:    7  470:  484
          58       8:   64    8:   64  282:  297
          59       1:    7    1:    7  345:  360
          60       1:    7    8:   64  360:  375
          61       8:   64    1:    7    1:   16
          62       8:   64    8:   64  407:  422
          63       8:   64    1:    7  455:  469
          64       1:    7    1:    7    1:   16
          65       1:    7    1:    7  392:  407
          66       1:    7    8:   64   48:   63
          67       1:    7    8:   64   80:   94
          68       8:   64    8:   64   95:  110
          69       8:   64    1:    7   48:   63
          70       8:   64    1:    7  220:  234
          71       1:    7    1:    7  298:  313
          72       8:   64    8:   64  220:  235
          73       8:   64    8:   64  251:  266
          74       8:   64    1:    7   80:   94
          75       1:    7    8:   64  314:  329
          76       1:    7    1:    7   48:   63
          77       1:    7    1:    7  329:  344
          78       1:    7    8:   64  423:  438
          79       8:   64    8:   64  454:  469
          80       1:    7    8:   64  470:  484
          81       1:    7    8:   64   16:   31
          82       8:   64    1:    7  205:  219
          83       8:   64    8:   64   79:   94
          84       1:    7    1:    7   33:   47
          85       8:   64    1:    7  423:  438
          86       8:   64    8:   64  157:  172
          87       1:    7    1:    7  111:  125
          88       1:    7    8:   64  220:  234
          89       8:   64    1:    7  314:  329
          90       8:   64    8:   64  298:  313
          91       1:    7    8:   64  330:  344
          92       1:    7    1:    7   64:   78
          93       1:    7    8:   64  391:  406
          94       1:    7    1:    7  283:  297
          95       1:    7    8:   64  455:  469
          96       8:   64    8:   64  470:  485
          97       8:   64    1:    7  142:  157
          98       1:    7    8:   64    1:   15
          99       1:    7    1:    7  314:  328
         100       8:   64    8:   64  111:  125
         101       8:   64    8:   64  142:  156
         102       8:   64    1:    7  126:  141
         103       1:    7    8:   64  205:  219
         104       1:    7    1:    7  236:  250
         105       8:   64    1:    7   33:   47
         106       1:    7    8:   64  298:  313
         107       8:   64    8:   64  314:  328
         108       1:    7    1:    7  408:  422
         109       8:   64    8:   64  392:  406
         110       8:   64    1:    7  110:  125
         111       1:    7    8:   64  251:  265
         112       1:    7    1:    7  361:  375
         113       8:   64    1:    7   64:   79
         114       1:    7    1:    7  486:  500
         115       8:   64    8:   64   64:   78
         116       1:    7    8:   64  126:  140
         117       8:   64    1:    7  439:  454
         118       8:   64    1:    7  283:  297
         119       1:    7    1:    7  158:  172
         120       8:   64    8:   64  236:  250
         121       8:   64    8:   64  267:  281
         122       1:    7    8:   64  141:  156
         123       1:    7    1:    7  439:  453
         124       1:    7    8:   64  376:  390
         125       1:    7    8:   64  157:  172
         126       8:   64    1:    7   95:  109
         127       1:    7    1:    7  189:  203
         128       8:   64    8:   64  486:  500
New grid distribution:   3
           1       1:   36   13:   64  236:  250
           2      39:   64   13:   64   17:   31
           3      12:   64    1:   12  391:  406
           4       1:   11    1:   12   16:   31
           5       1:   36   13:   64  486:  500
           6      39:   64   13:   64  267:  281
           7      12:   64    1:   12  438:  453
           8       1:   11    1:   12   32:   47
           9       1:   36   13:   64  361:  375
          10      39:   64   13:   64  173:  187
          11      12:   64    1:   12  313:  328
          12       1:   11    1:   12  188:  203
          13       1:   36   13:   64  111:  125
          14      39:   64   13:   64  392:  406
          15       1:   11    1:   12  469:  484
          16      12:   64    1:   12  485:  500
          17       1:   38   13:   64   17:   31
          18      39:   64   13:   64   48:   62
          19      12:   64    1:   12  407:  422
          20       1:   11    1:   12  485:  500
          21      39:   64   13:   64  142:  156
          22       1:   38   13:   64  157:  171
          23      12:   64    1:   12  344:  359
          24       1:   11    1:   12  141:  156
          25       1:   38   13:   64  267:  281
          26      39:   64   13:   64  298:  312
          27       1:   11    1:   12  157:  172
          28      12:   64    1:   12  360:  375
          29      39:   64   13:   64  376:  391
          30       1:   38   13:   64  407:  421
          31       1:   11    1:   12  438:  453
          32      12:   64    1:   12  469:  484
          33      12:   64    1:   12   16:   31
          34       1:   38   13:   64   47:   62
          35       1:   11    1:   12  344:  359
          36      37:   64   13:   64  110:  125
          37      12:   64    1:   12   32:   47
          38       1:   38   13:   64  172:  187
          39      37:   64   13:   64  204:  219
          40       1:   11    1:   12  110:  125
          41      12:   64    1:   12  157:  172
          42       1:   38   13:   64  297:  312
          43      37:   64   13:   64  329:  344
          44       1:   11    1:   12  360:  375
          45       1:   38   13:   64  376:  391
          46      12:   64    1:   12  219:  234
          47      37:   64   13:   64  438:  453
          48       1:   11    1:   12   94:  109
          49       1:   38   13:   64    1:   16
          50      12:   64    1:   12   94:  109
          51      37:   64   13:   64   63:   78
          52       1:   11    1:   12   63:   78
          53       1:   38   13:   64  126:  141
          54      12:   64    1:   12  141:  156
          55      37:   64   13:   64  188:  203
          56       1:   11    1:   12  313:  328
          57       1:   38   13:   64  251:  266
          58      12:   64    1:   12  235:  250
          59       1:   11    1:   12  235:  250
          60      37:   64   13:   64  360:  375
          61      12:   64    1:   12  188:  203
          62       1:   38   13:   64  422:  437
          63       1:   11    1:   12  407:  422
          64      37:   64   13:   64  485:  500
          65      12:   64    1:   12   63:   78
          66       1:   11    1:   12  219:  234
          67      37:   64   13:   64   79:   94
          68       1:   36   13:   64   95:  110
          69      39:   64   13:   64  126:  141
          70      12:   64    1:   12  110:  125
          71       1:   11    1:   12  266:  281
          72       1:   36   13:   64  220:  235
          73      12:   64    1:   12  266:  281
          74       1:   11    1:   12  282:  297
          75      37:   64   13:   64  313:  328
          76       1:   36   13:   64  345:  360
          77      12:   64    1:   12  282:  297
          78       1:   11    1:   12  391:  406
          79       1:   36   13:   64  454:  469
          80      37:   64   13:   64  470:  484
          81      12:   64    1:   12   79:   93
          82       1:   11    1:   12  173:  187
          83       1:   36   13:   64   63:   78
          84      37:   64   13:   64   95:  109
          85      12:   64    1:   12    1:   15
          86       1:   11    1:   12  126:  140
          87       1:   36   13:   64  188:  203
          88      37:   64   13:   64  235:  250
          89      12:   64    1:   12  454:  468
          90       1:   11    1:   12  204:  218
          91       1:   36   13:   64  329:  344
          92      37:   64   13:   64  345:  359
          93      12:   64    1:   12   48:   62
          94       1:   11    1:   12   48:   62
          95      37:   64   13:   64  454:  469
          96       1:   36   13:   64  470:  485
          97      12:   64    1:   12  204:  218
          98      39:   64   13:   64   32:   47
          99       1:   36   13:   64   79:   94
         100       1:   11    1:   12    1:   15
         101      12:   64    1:   12  251:  265
         102       1:   11    1:   12   79:   93
         103       1:   36   13:   64  204:  219
         104      37:   64   13:   64  220:  234
         105      12:   64    1:   12  173:  187
         106      39:   64   13:   64  282:  297
         107       1:   36   13:   64  313:  328
         108       1:   11    1:   12  423:  437
         109      12:   64    1:   12  423:  437
         110      39:   64   13:   64  407:  422
         111       1:   36   13:   64  438:  453
         112       1:   11    1:   12  376:  390
         113      39:   64   13:   64    1:   16
         114       1:   38   13:   64   32:   46
         115      12:   64    1:   12  298:  312
         116       1:   11    1:   12  454:  468
         117       1:   38   13:   64  142:  156
         118      39:   64   13:   64  157:  172
         119      12:   64    1:   12  126:  140
         120       1:   11    1:   12  298:  312
         121      39:   64   13:   64  251:  266
         122       1:   38   13:   64  282:  296
         123      12:   64    1:   12  329:  343
         124       1:   11    1:   12  251:  265
         125       1:   38   13:   64  392:  406
         126      39:   64   13:   64  423:  437
         127      12:   64    1:   12  376:  390
         128       1:   11    1:   12  329:  343
Setting up quadratic distribution...
ExtMesh (bp) on 0 =    93 x    93 x    47 =      406503
PhiOnMesh: Number of (b)points on node 0 =                48735
PhiOnMesh: nlist on node 0 =                53563
QETSC: Last update           = Dec 15, 2016
QETSC: Number of ranks       =         128
QETSC: Number of slices      =          64
QETSC: Number of ranks/slice =           2
QETSC: Number of evals/slice =   6.00
QETSC: Number of req. evals  =         384
QETSC: Number of rows (all)  =        2944
QETSC: Number of rows (max)  =          23
QETSC: Number of rows (min)  =          23
QETSC: Density option        =           0
QETSC: Bin type given        =           7
QETSC: Inertia type          =           1
QETSC: Infinity type         =           2
QETSC: Write option          =           1
QETSC: Bin buffer given      =   0.05
QETSC: Diff thresh           =   0.10
QETSC: Number of nonzeros    =      609408
QETSC: Nonzero % (all)       =   7.03
QETSC: Nonzero % (max)       =   7.03
QETSC: Nonzero % (min)       =   7.03
 QETSC: Shifts, inertias         =
      -INF     0
    -2.300     0
    -2.263     0
    -2.227     0
    -2.190     0
    -2.154     0
    -2.117     0
    -2.081     0
    -2.044     0
    -2.008     0
    -1.971     0
    -1.935     0
    -1.898     0
    -1.862     0
    -1.825     0
    -1.789     0
    -1.752     0
    -1.716     0
    -1.679     0
    -1.643    23
    -1.606    31
    -1.570    39
    -1.533    45
    -1.497    51
    -1.460    57
    -1.424    61
    -1.387    65
    -1.351    71
    -1.314    75
    -1.278    81
    -1.241   100
    -1.205   128
    -1.168   128
    -1.132   128
    -1.095   128
    -1.059   141
    -1.022   155
    -0.986   171
    -0.949   199
    -0.913   219
    -0.876   237
    -0.840   255
    -0.803   279
    -0.767   311
    -0.730   379
    -0.694   384
    -0.657   384
    -0.621   384
    -0.584   384
    -0.548   384
    -0.511   384
    -0.475   384
    -0.438   384
    -0.402   384
    -0.365   384
    -0.329   384
    -0.292   384
    -0.256   384
    -0.219   384
    -0.183   384
    -0.146   384
    -0.110   384
    -0.073   384
    -0.037   384
     0.000   384
 QETSc: Custers,iter,crange,npcmax,trial 1 0.125467346938775530E-01 12 6
-1.6682539682539681E+00
-1.6555555555555554E+00
-1.6428571428571428E+00
-1.6291666666666667E+00
-1.6154761904761903E+00
-1.6017857142857141E+00
-1.5880952380952380E+00
-1.5744047619047619E+00
-1.5576719576719575E+00
-1.5394179894179894E+00
-1.5211640211640212E+00
-1.5029100529100530E+00
-1.4846560846560846E+00
-1.4664021164021164E+00
-1.4511904761904761E+00
-1.4329365079365077E+00
-1.4146825396825395E+00
-1.3964285714285714E+00
-1.3751322751322750E+00
-1.3568783068783068E+00
-1.3416666666666666E+00
-1.3234126984126984E+00
-1.3021164021164020E+00
-1.2838624338624338E+00
-1.2662489557226400E+00
-1.2527986633249790E+00
-1.2386621315192743E+00
-1.2256235827664399E+00
-1.2125850340136055E+00
-1.2060657596371882E+00
-1.0840048840048839E+00
-1.0699633699633699E+00
-1.0561224489795920E+00
-1.0430839002267573E+00
-1.0300453514739227E+00
-1.0153769841269842E+00
-1.0016865079365078E+00
-9.8799603174603179E-01
-9.7397959183673466E-01
-9.6094104308390027E-01
-9.4738095238095232E-01
-9.3460317460317455E-01
-9.2182539682539677E-01
-9.0864197530864199E-01
-8.9444444444444438E-01
-8.8024691358024687E-01
-8.6604938271604937E-01
-8.5185185185185186E-01
-8.3816137566137572E-01
-8.2447089947089947E-01
-8.1078042328042332E-01
-7.9747023809523809E-01
-7.8492063492063502E-01
-7.7237103174603183E-01
-7.6290849673202621E-01
-7.5646591970121391E-01
-7.5002334267040160E-01
-7.4358076563958919E-01
-7.3713818860877689E-01
-7.3069561157796459E-01
-7.2285714285714286E-01
-7.0825396825396825E-01
-6.9365079365079363E-01
 QETSC: Bins             =
                   -INF
-1.6793650793650792E+00
-1.6657142857142855E+00
-1.6530158730158728E+00
-1.6401190476190475E+00
-1.6264285714285713E+00
-1.6127380952380950E+00
-1.5990476190476188E+00
-1.5853571428571427E+00
-1.5710582010582010E+00
-1.5540211640211639E+00
-1.5357671957671957E+00
-1.5175132275132275E+00
-1.4992592592592593E+00
-1.4810052910052909E+00
-1.4633597883597884E+00
-1.4475396825396825E+00
-1.4292857142857140E+00
-1.4110317460317459E+00
-1.3921693121693122E+00
-1.3714814814814813E+00
-1.3538359788359788E+00
-1.3380158730158729E+00
-1.3191534391534392E+00
-1.2984656084656083E+00
-1.2803397382344750E+00
-1.2635588972431078E+00
-1.2499713569638380E+00
-1.2360544217687075E+00
-1.2230158730158731E+00
-1.2112811791383220E+00
-1.1816535845107274E+00
-1.0811965811965811E+00
-1.0671951857666144E+00
-1.0535147392290249E+00
-1.0404761904761903E+00
-1.0271116780045351E+00
-1.0126388888888889E+00
-9.9894841269841261E-01
-9.8519274376417232E-01
-9.7137188208616776E-01
-9.5822902494331064E-01
-9.4482539682539679E-01
-9.3204761904761901E-01
-9.1918871252204581E-01
-9.0580246913580242E-01
-8.9160493827160492E-01
-8.7740740740740741E-01
-8.6320987654320991E-01
-8.4911375661375665E-01
-8.3542328042328051E-01
-8.2173280423280426E-01
-8.0811838624338628E-01
-7.9496031746031748E-01
-7.8241071428571440E-01
-7.7047852474323075E-01
-7.6161998132586373E-01
-7.5517740429505142E-01
-7.4873482726423912E-01
-7.4229225023342671E-01
-7.3584967320261441E-01
-7.2912791783380027E-01
-7.1993650793650799E-01
-7.0533333333333337E-01
-6.9365079365079363E-01
QETSC: Started iter            1
QETSC: Bin type used         =           7
QETSC: Buffer used           =   0.0000000000000000E+00
QETSC: EPS interval          =      -INF,    -0.694
QETSC: Inertia type          =           1
SLEPc: EPSSolve time = 30 2.189e-06
SLEPc: EPSSolve time = 62 2.289e-06
SLEPc: EPSSolve time = 0 2.508e-06
SLEPc: EPSSolve time = 31 2.309e-06
SLEPc: EPSSolve time = 63 1.755e-06
SLEPc: EPSSolve time = 29 2.172e-06
SLEPc: EPSSolve time = 24 1.663e+00
SLEPc: EPSSolve time = 6 1.674e+00
SLEPc: EPSSolve time = 26 1.680e+00
SLEPc: EPSSolve time = 14 1.684e+00
SLEPc: EPSSolve time = 19 1.685e+00
SLEPc: EPSSolve time = 23 1.691e+00
SLEPc: EPSSolve time = 17 1.692e+00
SLEPc: EPSSolve time = 18 1.693e+00
SLEPc: EPSSolve time = 20 1.695e+00
SLEPc: EPSSolve time = 15 1.695e+00
SLEPc: EPSSolve time = 9 1.696e+00
SLEPc: EPSSolve time = 21 1.698e+00
SLEPc: EPSSolve time = 8 1.698e+00
SLEPc: EPSSolve time = 13 1.701e+00
SLEPc: EPSSolve time = 11 1.707e+00
SLEPc: EPSSolve time = 25 1.709e+00
SLEPc: EPSSolve time = 12 1.710e+00
SLEPc: EPSSolve time = 16 1.723e+00
SLEPc: EPSSolve time = 7 1.724e+00
SLEPc: EPSSolve time = 60 1.726e+00
SLEPc: EPSSolve time = 3 1.727e+00
SLEPc: EPSSolve time = 22 1.727e+00
SLEPc: EPSSolve time = 4 1.728e+00
SLEPc: EPSSolve time = 10 1.728e+00
SLEPc: EPSSolve time = 5 1.731e+00
SLEPc: EPSSolve time = 35 1.743e+00
SLEPc: EPSSolve time = 57 1.743e+00
SLEPc: EPSSolve time = 37 1.745e+00
SLEPc: EPSSolve time = 36 1.755e+00
SLEPc: EPSSolve time = 34 1.757e+00
SLEPc: EPSSolve time = 48 1.759e+00
SLEPc: EPSSolve time = 41 1.763e+00
SLEPc: EPSSolve time = 50 1.764e+00
SLEPc: EPSSolve time = 44 1.764e+00
SLEPc: EPSSolve time = 43 1.765e+00
SLEPc: EPSSolve time = 49 1.773e+00
SLEPc: EPSSolve time = 2 1.774e+00
SLEPc: EPSSolve time = 45 1.786e+00
SLEPc: EPSSolve time = 61 1.790e+00
SLEPc: EPSSolve time = 47 1.796e+00
SLEPc: EPSSolve time = 42 1.796e+00
SLEPc: EPSSolve time = 53 1.803e+00
SLEPc: EPSSolve time = 52 1.808e+00
SLEPc: EPSSolve time = 46 1.808e+00
SLEPc: EPSSolve time = 32 1.825e+00
SLEPc: EPSSolve time = 51 1.829e+00
SLEPc: EPSSolve time = 38 1.844e+00
SLEPc: EPSSolve time = 33 1.859e+00
SLEPc: EPSSolve time = 58 1.860e+00
SLEPc: EPSSolve time = 40 1.873e+00
SLEPc: EPSSolve time = 39 1.875e+00
SLEPc: EPSSolve time = 1 1.884e+00
SLEPc: EPSSolve time = 56 1.958e+00
SLEPc: EPSSolve time = 27 1.967e+00
SLEPc: EPSSolve time = 28 1.998e+00
SLEPc: EPSSolve time = 55 2.375e+00
SLEPc: EPSSolve time = 54 2.419e+00
SLEPc: EPSSolve time = 59 2.826e+00
 QETSC: Eigenvalues         =
-1.6792898009683808E+00
-1.6789996922250237E+00
-1.6789996922250214E+00
-1.6781294751270788E+00
-1.6781294751270763E+00
-1.6766794797057345E+00
-1.6766794797057329E+00
-1.6746505299675298E+00
-1.6746499993000448E+00
-1.6720426298959861E+00
-1.6720426298959841E+00
-1.6688576336679244E+00
-1.6688576336679235E+00
-1.6650966130398832E+00
-1.6650966130398814E+00
-1.6607614371024080E+00
-1.6607609794869687E+00
-1.6558533903325976E+00
-1.6558533903325960E+00
-1.6503754914024333E+00
-1.6503754914024309E+00
-1.6443302401572806E+00
-1.6443302401572781E+00
-1.6377295940554957E+00
-1.6377119801211215E+00
-1.6305507782508757E+00
-1.6305507782508710E+00
-1.6228243859141687E+00
-1.6228243859141673E+00
-1.6145463468382311E+00
-1.6145463468382295E+00
-1.6057238485298084E+00
-1.6057202689753536E+00
-1.5963576464339906E+00
-1.5963576464339848E+00
-1.5864600543452145E+00
-1.5864600543452128E+00
-1.5760371562121043E+00
-1.5760371562120963E+00
-1.5650980815262403E+00
-1.5650976947079698E+00
-1.5536524078177161E+00
-1.5536524078177127E+00
-1.5417122890804174E+00
-1.5417122890804151E+00
-1.5292907595560856E+00
-1.5292907595560807E+00
-1.5164053129189898E+00
-1.5164006733068565E+00
-1.5030664732753720E+00
-1.5030664732753682E+00
-1.4893014430983453E+00
-1.4893014430983416E+00
-1.4751314672196467E+00
-1.4751314672196421E+00
-1.4605859526477931E+00
-1.4605823237561040E+00
-1.4456919638164318E+00
-1.4456919638164307E+00
-1.4304934842994319E+00
-1.4304934842994232E+00
-1.4150346797642082E+00
-1.4150346797641997E+00
-1.3993708446340900E+00
-1.3993706328007940E+00
-1.3835682609316888E+00
-1.3835682609316873E+00
-1.3677079616496590E+00
-1.3677079616496537E+00
-1.3518879007374953E+00
-1.3518879007374909E+00
-1.3362274355465491E+00
-1.3362268698821032E+00
-1.3208696050386524E+00
-1.3208696050386466E+00
-1.3059871485162735E+00
-1.3059871485162646E+00
-1.2917808422031047E+00
-1.2917808422030999E+00
-1.2784800720487803E+00
-1.2784754197942776E+00
-1.2663203998453303E+00
-1.2663203998453243E+00
-1.2555463253085506E+00
-1.2555463253085446E+00
-1.2470904146233488E+00
-1.2469283454191329E+00
-1.2469283454191313E+00
-1.2464447289491403E+00
-1.2464447289491378E+00
-1.2463579608698612E+00
-1.2463579608698585E+00
-1.2456472154882097E+00
-1.2456472154882066E+00
-1.2445511329937853E+00
-1.2445490155310339E+00
-1.2431719955249110E+00
-1.2431719955249063E+00
-1.2415397679311795E+00
-1.2415397679311766E+00
-1.2396878027010561E+00
-1.2396878027010501E+00
-1.2388873551662718E+00
-1.2388868415231378E+00
-1.2376603580876619E+00
-1.2376595314610439E+00
-1.2355113766498911E+00
-1.2355113766498833E+00
-1.2333110550986668E+00
-1.2333110550986590E+00
-1.2331706658876249E+00
-1.2331706658876216E+00
-1.2311447328227498E+00
-1.2311447328227427E+00
-1.2291398955564810E+00
-1.2291398955564772E+00
-1.2291355728970506E+00
-1.2291010883132214E+00
-1.2273622232059165E+00
-1.2273622232059105E+00
-1.2266368392047913E+00
-1.2266368392047857E+00
-1.2260345857478883E+00
-1.2260345857478803E+00
-1.2254460204095781E+00
-1.2254438109528072E+00
-1.2253232816404289E+00
-1.2253232816404196E+00
-1.0713228956673946E+00
-1.0710499858299642E+00
-1.0710499858299618E+00
-1.0702317714422209E+00
-1.0702317714422194E+00
-1.0688698019162619E+00
-1.0688698019162612E+00
-1.0669667197650876E+00
-1.0669666263856783E+00
-1.0645260473966478E+00
-1.0645260473966425E+00
-1.0615526824108230E+00
-1.0615526824108199E+00
-1.0580524673304930E+00
-1.0580524673304903E+00
-1.0540327137390759E+00
-1.0540322222397667E+00
-1.0495009803630604E+00
-1.0495009803630579E+00
-1.0444675933961476E+00
-1.0444675933961456E+00
-1.0389432685610558E+00
-1.0389432685610525E+00
-1.0329674555827515E+00
-1.0329131096867519E+00
-1.0264726340792629E+00
-1.0264726340792383E+00
-1.0195559391056288E+00
-1.0195559391056257E+00
-1.0122073346969098E+00
-1.0122073346969032E+00
-1.0044460043779442E+00
-1.0044458070891984E+00
-9.9629266224551127E-01
-9.9629266224550628E-01
-9.8777067184118850E-01
-9.8777067184118450E-01
-9.8740052528638345E-01
-9.8740052528637301E-01
-9.8643241425744976E-01
-9.8643241425744743E-01
-9.8637206098430386E-01
-9.8636866725050143E-01
-9.8357562706215196E-01
-9.8357562706213464E-01
-9.8327397795441940E-01
-9.8327397795440807E-01
-9.7926084190886642E-01
-9.7926084190885010E-01
-9.7890529484444688E-01
-9.7890529484444055E-01
-9.7781029778969963E-01
-9.7780937258140921E-01
-9.7366042164208388E-01
-9.7366042164207434E-01
-9.7002753701653133E-01
-9.7002753701652000E-01
-9.6972320410336066E-01
-9.6972268769344994E-01
-9.6698897826488928E-01
-9.6698654261686734E-01
-9.6025527154819601E-01
-9.6025527154819057E-01
-9.6003046783954427E-01
-9.6003046783953538E-01
-9.5943173734620579E-01
-9.5943173734619858E-01
-9.5115754962969246E-01
-9.5115754962967858E-01
-9.5053350911699264E-01
-9.5053350911698664E-01
-9.4801813545949010E-01
-9.4801813545947966E-01
-9.4230962176934829E-01
-9.4230962176933131E-01
-9.4059267006838021E-01
-9.4059267006837266E-01
-9.3426065352426979E-01
-9.3426041173873908E-01
-9.3301559336652473E-01
-9.3301458918303004E-01
-9.3047065682152841E-01
-9.3046975926727948E-01
-9.2338717302714091E-01
-9.2338717302713480E-01
-9.2020615535250072E-01
-9.2020615535249717E-01
-9.1906379254830961E-01
-9.1906379254830517E-01
-9.1352797951742326E-01
-9.1352797951741982E-01
-9.0984309357169191E-01
-9.0984309357168491E-01
-9.0353085306281378E-01
-9.0353085306280223E-01
-9.0274421172677044E-01
-9.0274421172675523E-01
-8.9942606175319617E-01
-8.9942606175318651E-01
-8.9348463382115872E-01
-8.9347944532050660E-01
-8.8900589749405190E-01
-8.8899887660551191E-01
-8.8561291607276527E-01
-8.8561291607276227E-01
-8.8346171752138758E-01
-8.8346171752137681E-01
-8.7862143536066284E-01
-8.7862143536065651E-01
-8.7354543096126680E-01
-8.7354543096125847E-01
-8.6833425672704667E-01
-8.6833425672704134E-01
-8.6804690445358756E-01
-8.6789137554837426E-01
-8.6380305140262825E-01
-8.6380305140262070E-01
-8.5819311968826684E-01
-8.5819311968826339E-01
-8.5430680711531692E-01
-8.5429329425999878E-01
-8.5010324537694903E-01
-8.5010324537693871E-01
-8.4825098361636819E-01
-8.4825087536717536E-01
-8.4509662912185679E-01
-8.4509662912185013E-01
-8.3856051981093360E-01
-8.3856051981092705E-01
-8.3624734800095835E-01
-8.3624734800095235E-01
-8.3229911840558102E-01
-8.3229911840556658E-01
-8.2917381577907945E-01
-8.2917381577907312E-01
-8.2780051029692214E-01
-8.2780051029692026E-01
-8.2014091292780611E-01
-8.2014091292779889E-01
-8.1979787362883216E-01
-8.1979723832529550E-01
-8.1483981700253683E-01
-8.1483981700252650E-01
-8.1227241803305905E-01
-8.1227241803304473E-01
-8.1151518046843418E-01
-8.1150285950138523E-01
-8.0525104093305533E-01
-8.0525104093304301E-01
-8.0332142504601833E-01
-8.0332142504601534E-01
-7.9875106300206322E-01
-7.9875106300205378E-01
-7.9801350807105687E-01
-7.9801321300489814E-01
-7.9561640395127808E-01
-7.9561640395127253E-01
-7.9278399810980937E-01
-7.9277948573018753E-01
-7.8842620048549072E-01
-7.8842620048548429E-01
-7.8734415773964517E-01
-7.8734415773963728E-01
-7.8243170068144252E-01
-7.8243170068143464E-01
-7.8211568233367001E-01
-7.8211568233366391E-01
-7.8177966912194086E-01
-7.8177261011081034E-01
-7.7803085705939168E-01
-7.7803085705938169E-01
-7.7568391594861685E-01
-7.7568391594860986E-01
-7.7416375497130585E-01
-7.7407952175655204E-01
-7.7068003486344738E-01
-7.7068003486343617E-01
-7.7015911279338090E-01
-7.7015911279337823E-01
-7.6767858036621550E-01
-7.6767858036620784E-01
-7.6745110280266859E-01
-7.6745110280266116E-01
-7.6520298288904454E-01
-7.6520298288904254E-01
-7.6508623200017256E-01
-7.6508623200016679E-01
-7.6287234945006277E-01
-7.6287197653911254E-01
-7.6100516989475919E-01
-7.6100516989475142E-01
-7.6080881789355725E-01
-7.6080831886212652E-01
-7.5945541382472281E-01
-7.5945541382471615E-01
-7.5819525951125011E-01
-7.5819525951124445E-01
-7.5720037474314994E-01
-7.5719955580743148E-01
-7.5696100996229854E-01
-7.5696100996229398E-01
-7.5644861223805238E-01
-7.5644861223804993E-01
-7.5592428903282016E-01
-7.5592428903281805E-01
-7.5561469461538888E-01
-7.5561469461538744E-01
-7.5551233467999690E-01
-7.5432972187097613E-01
-7.5432972187096903E-01
-7.5363839845206582E-01
-7.5363839845206104E-01
-7.5081232335703074E-01
-7.5081232335702697E-01
-7.4845001194273764E-01
-7.4844835303855406E-01
-7.4651122294940953E-01
-7.4651122294940830E-01
-7.4495779040358101E-01
-7.4495779040357801E-01
-7.4374691226461298E-01
-7.4374691226461009E-01
-7.4305858074300379E-01
-7.4305801850392683E-01
-7.4289389472808409E-01
-7.4276695911794144E-01
-7.4216931060170344E-01
-7.4216931060170166E-01
-7.4172819349613583E-01
-7.4172524935733541E-01
-7.4172524935733353E-01
-7.4171036453526684E-01
-7.4171036453526495E-01
-7.4165906361812317E-01
-7.4165906361812095E-01
-7.4158086979937887E-01
-7.4158086979937698E-01
-7.4148721195146550E-01
-7.4148615763349246E-01
-7.4145346341216412E-01
-7.4145346341216301E-01
-7.4139173159233229E-01
-7.4139173159233074E-01
-7.4131738596706209E-01
-7.4131661462699683E-01
-7.4131545045257985E-01
-7.4131545045257730E-01
-7.4128138157038370E-01
-7.4128138157038115E-01
-7.3392806673236788E-01
-7.3392806673236166E-01
-7.2719724255040663E-01
-7.2719724255040330E-01
-7.2307034828068517E-01
-7.2307034828068295E-01
-7.2167947510274211E-01
QETSC: Iter time (min)       =     1   5.23
QETSC: Iter time (max)       =     1   5.23
QETSC: Iter time (avg)       =     1   5.23
QETSC: Num. of conv. evals   =     1         384
QETSC: Eigenvalue (1)        =     1  -1.6792898009683808E+00
QETSC: Eigenvalue (nocc)     =     1  -7.2167947510274211E-01
QETSC: Max differrence       =     1   1.6792898009683808E+00
QETSC: Safe iteration        =     1      F
QETSC: Finished iter         =           1
 *****************************************************************
QETSC: SCF iter time=   5.360

siesta: Program's energy decomposition (eV):
siesta: Ebs     =    -10972.813260
siesta: Eions   =     37515.017267
siesta: Ena     =      8051.360606
siesta: Ekin    =     15139.467002
siesta: Enl     =     -1077.770530
siesta: DEna    =         0.000018
siesta: DUscf   =         0.000000
siesta: DUext   =         0.000000
siesta: Exc     =     -8032.963215
siesta: eta*DQ  =         0.000000
siesta: Emadel  =         0.000000
siesta: Emeta   =         0.000000
siesta: Emolmec =         0.000000
siesta: Ekinion =         0.000000
siesta: Eharris =    -23995.195586
siesta: Etot    =    -23434.923385
siesta: FreeEng =    -23434.923385
timer: Routine,Calls,Time,% =    IterSCF     1       6.460  29.01
 QETSC: Bins             =
                   -INF
-2.2999999999999998E+00
-2.2634920634920634E+00
-2.2269841269841266E+00
-2.1904761904761902E+00
-2.1539682539682539E+00
-2.1174603174603175E+00
-2.0809523809523807E+00
-2.0444444444444443E+00
-2.0079365079365079E+00
-1.9714285714285713E+00
-1.9349206349206347E+00
-1.8984126984126983E+00
-1.8619047619047617E+00
-1.8253968253968254E+00
-1.7888888888888888E+00
-1.7523809523809524E+00
-1.7158730158730158E+00
-1.6793650793650792E+00
-1.6428571428571428E+00
-1.6063492063492062E+00
-1.5698412698412698E+00
-1.5333333333333332E+00
-1.4968253968253968E+00
-1.4603174603174602E+00
-1.4238095238095236E+00
-1.3873015873015873E+00
-1.3507936507936507E+00
-1.3142857142857143E+00
-1.2777777777777777E+00
-1.2412698412698413E+00
-1.2047619047619047E+00
-1.1682539682539683E+00
-1.1317460317460317E+00
-1.0952380952380951E+00
-1.0587301587301587E+00
-1.0222222222222221E+00
-9.8571428571428577E-01
-9.4920634920634916E-01
-9.1269841269841268E-01
-8.7619047619047619E-01
-8.3968253968253970E-01
-8.0317460317460321E-01
-7.6666666666666672E-01
-7.3015873015873023E-01
-6.9365079365079363E-01
-6.5714285714285714E-01
-6.2063492063492065E-01
-5.8412698412698416E-01
-5.4761904761904767E-01
-5.1111111111111118E-01
-4.7460317460317469E-01
-4.3809523809523815E-01
-4.0158730158730166E-01
-3.6507936507936517E-01
-3.2857142857142863E-01
-2.9206349206349214E-01
-2.5555555555555565E-01
-2.1904761904761916E-01
-1.8253968253968264E-01
-1.4603174603174612E-01
-1.0952380952380963E-01
-7.3015873015873131E-02
-3.6507936507936628E-02
-1.2490009027033011E-16
QETSC: Started iter            2
QETSC: Bin type used         =           0
QETSC: Buffer used           =   1.6792898009683808E+00
QETSC: EPS interval          =      -INF,     0.000
QETSC: Inertia type          =           1
SLEPc: EPSSolve time = 4 2.176e-06
SLEPc: EPSSolve time = 19 2.234e-06
SLEPc: EPSSolve time = 12 1.747e-06
SLEPc: EPSSolve time = 60 1.793e-06
SLEPc: EPSSolve time = 28 2.005e-06
SLEPc: EPSSolve time = 43 2.293e-06
SLEPc: EPSSolve time = 7 2.009e-06
SLEPc: EPSSolve time = 16 2.279e-06
SLEPc: EPSSolve time = 11 2.735e-06
SLEPc: EPSSolve time = 63 1.761e-06
SLEPc: EPSSolve time = 26 1.990e-06
SLEPc: EPSSolve time = 42 2.320e-06
SLEPc: EPSSolve time = 3 2.245e-06
SLEPc: EPSSolve time = 21 2.067e-06
SLEPc: EPSSolve time = 15 1.993e-06
SLEPc: EPSSolve time = 58 2.382e-06
SLEPc: EPSSolve time = 24 2.044e-06
SLEPc: EPSSolve time = 6 2.721e-06
SLEPc: EPSSolve time = 22 1.932e-06
SLEPc: EPSSolve time = 13 2.790e-06
SLEPc: EPSSolve time = 61 2.635e-06
SLEPc: EPSSolve time = 25 1.867e-06
SLEPc: EPSSolve time = 5 2.239e-06
SLEPc: EPSSolve time = 23 1.781e-06
SLEPc: EPSSolve time = 14 1.802e-06
SLEPc: EPSSolve time = 62 2.350e-06
SLEPc: EPSSolve time = 27 2.597e-06
SLEPc: EPSSolve time = 0 2.764e-06
SLEPc: EPSSolve time = 17 2.205e-06
SLEPc: EPSSolve time = 8 2.143e-06
SLEPc: EPSSolve time = 59 2.066e-06
SLEPc: EPSSolve time = 1 2.831e-06
SLEPc: EPSSolve time = 20 2.504e-06
SLEPc: EPSSolve time = 9 2.090e-06
SLEPc: EPSSolve time = 57 1.760e-06
SLEPc: EPSSolve time = 2 2.729e-06
SLEPc: EPSSolve time = 18 2.456e-06
SLEPc: EPSSolve time = 10 2.102e-06
SLEPc: EPSSolve time = 31 1.658e+00
SLEPc: EPSSolve time = 56 1.699e+00
SLEPc: EPSSolve time = 33 1.718e+00
SLEPc: EPSSolve time = 35 1.721e+00
SLEPc: EPSSolve time = 30 1.723e+00
SLEPc: EPSSolve time = 38 1.732e+00
SLEPc: EPSSolve time = 37 1.733e+00
SLEPc: EPSSolve time = 36 1.738e+00
SLEPc: EPSSolve time = 34 1.758e+00
SLEPc: EPSSolve time = 55 1.767e+00
SLEPc: EPSSolve time = 54 1.769e+00
SLEPc: EPSSolve time = 32 1.808e+00
SLEPc: EPSSolve time = 45 1.809e+00
SLEPc: EPSSolve time = 29 1.916e+00
SLEPc: EPSSolve time = 44 1.985e+00
SLEPc: EPSSolve time = 39 2.286e+00
SLEPc: EPSSolve time = 47 2.398e+00
SLEPc: EPSSolve time = 49 2.468e+00
SLEPc: EPSSolve time = 46 2.472e+00
SLEPc: EPSSolve time = 41 2.518e+00
SLEPc: EPSSolve time = 50 3.040e+00
SLEPc: EPSSolve time = 48 3.109e+00
SLEPc: EPSSolve time = 40 3.328e+00
SLEPc: EPSSolve time = 53 4.394e+00
SLEPc: EPSSolve time = 51 5.592e+00
SLEPc: EPSSolve time = 52 7.830e+00
 QETSC: Eigenvalues         =
-1.2740833956464928E+00
-1.2737830711236611E+00
-1.2737830711216560E+00
-1.2728822067898451E+00
-1.2728822067897110E+00
-1.2713811338663445E+00
-1.2713811338662233E+00
-1.2692810696393237E+00
-1.2692797616725846E+00
-1.2665808647168162E+00
-1.2665808647167434E+00
-1.2632835650016672E+00
-1.2632835650016148E+00
-1.2593898990822059E+00
-1.2593898990820627E+00
-1.2549019477428964E+00
-1.2549012135206394E+00
-1.2498206905186124E+00
-1.2498206905185520E+00
-1.2441497172617759E+00
-1.2441497172616958E+00
-1.2378916032292537E+00
-1.2378916032291978E+00
-1.2310614118713230E+00
-1.2310381336281857E+00
-1.2236282393364071E+00
-1.2236282393363729E+00
-1.2156316373782119E+00
-1.2156316373781706E+00
-1.2070652632724324E+00
-1.2070652632722638E+00
-1.1979374945854153E+00
[...]
/home/keceli/scratch2/siesta-qetsc/Obj/siesta on a arch-xl named Q02-I1-J03.vesta.itd with 128 processors, by Unknown Tue Jan  3 23:00:08 2017
Using Petsc Development GIT revision: v3.7.3-1204-g68f0caa  GIT Date: 2016-08-19 16:41:02 -0500

                         Max       Max/Min        Avg      Total 
Time (sec):           8.443e+01      1.00000   8.443e+01
Objects:              2.330e+03      1.09441   2.245e+03
Flops:                3.353e+09   2835.37445   1.485e+09  1.901e+11
Flops/sec:            3.971e+07   2835.37425   1.759e+07  2.251e+09
MPI Messages:         1.865e+04      2.55970   1.146e+04  1.467e+06
MPI Message Lengths:  4.491e+07      2.57515   2.572e+03  3.774e+09
MPI Reductions:       1.156e+04      1.54073

Flop counting convention: 1 flop = 1 real number operation of type (multiply/divide/add/subtract)
                            e.g., VecAXPY() for real vectors of length N --> 2N flops
                            and VecAXPY() for complex vectors of length N --> 8N flops

Summary of Stages:   ----- Time ------  ----- Flops -----  --- Messages ---  -- Message Lengths --  -- Reductions --
                        Avg     %Total     Avg     %Total   counts   %Total     Avg         %Total   counts   %Total 
 0:      Main Stage: 1.9879e-04   0.0%  0.0000e+00   0.0%  0.000e+00   0.0%  0.000e+00        0.0%  0.000e+00   0.0% 
 1:     siesta_init: 2.8020e+00   3.3%  0.0000e+00   0.0%  0.000e+00   0.0%  0.000e+00        0.0%  0.000e+00   0.0% 
 2:   siesta_forces: 1.4162e+01  16.8%  0.0000e+00   0.0%  0.000e+00   0.0%  0.000e+00        0.0%  0.000e+00   0.0% 
 3:    siesta_solve: 1.5772e-03   0.0%  0.0000e+00   0.0%  0.000e+00   0.0%  0.000e+00        0.0%  0.000e+00   0.0% 
 4:    siesta2qetsc: 6.9692e-02   0.1%  0.0000e+00   0.0%  4.350e+03   0.3%  2.307e-01        0.0%  5.300e+01   0.7% 
 5: qetsc_setup_eps: 1.9138e+00   2.3%  1.5676e+08   0.1%  4.091e+05  27.9%  1.603e+03       62.3%  1.640e+02   2.2% 
 6: qetsc_solve_eps: 4.6166e+01  54.7%  1.8990e+11  99.9%  3.211e+05  21.9%  8.998e+02       35.0%  2.259e+03  30.1% 
 7:   qetsc_eigvals: 1.2487e-02   0.0%  0.0000e+00   0.0%  0.000e+00   0.0%  0.000e+00        0.0%  0.000e+00   0.0% 
 8:   qetsc_density: 5.9913e+00   7.1%  0.0000e+00   0.0%  7.327e+05  49.9%  6.928e+01        2.7%  6.932e+03  92.3% 
10:     siesta_misc: 1.2096e+01  14.3%  0.0000e+00   0.0%  0.000e+00   0.0%  0.000e+00        0.0%  0.000e+00   0.0% 
11:     siesta_move: 1.1884e-01   0.1%  0.0000e+00   0.0%  0.000e+00   0.0%  0.000e+00        0.0%  0.000e+00   0.0% 
12: siesta_analysis: 8.9858e-03   0.0%  0.0000e+00   0.0%  0.000e+00   0.0%  0.000e+00        0.0%  0.000e+00   0.0% 
13:     qetsc_clean: 3.6094e-06   0.0%  0.0000e+00   0.0%  0.000e+00   0.0%  0.000e+00        0.0%  0.000e+00   0.0% 
14:      siesta_end: 1.0867e+00   1.3%  0.0000e+00   0.0%  0.000e+00   0.0%  0.000e+00        0.0%  0.000e+00   0.0% 

------------------------------------------------------------------------------------------------------------------------
See the 'Profiling' chapter of the users' manual for details on interpreting output.
Phase summary info:
   Count: number of times phase was executed
   Time and Flops: Max - maximum over all processors
                   Ratio - ratio of maximum to minimum over all processors
   Mess: number of messages sent
   Avg. len: average message length (bytes)
   Reduct: number of global reductions
   Global: entire computation
   Stage: stages of a computation. Set stages with PetscLogStagePush() and PetscLogStagePop().
      %T - percent time in this phase         %F - percent flops in this phase
      %M - percent messages in this phase     %L - percent message lengths in this phase
      %R - percent reductions in this phase
   Total Mflop/s: 10e-6 * (sum of flops over all processors)/(max time over all processors)
------------------------------------------------------------------------------------------------------------------------
Event                Count      Time (sec)     Flops                             --- Global ---  --- Stage ---   Total
                   Max Ratio  Max     Ratio   Max  Ratio  Mess   Avg len Reduct  %T %F %M %L %R  %T %F %M %L %R Mflop/s
------------------------------------------------------------------------------------------------------------------------

--- Event Stage 0: Main Stage


--- Event Stage 1: siesta_init


--- Event Stage 2: siesta_forces


--- Event Stage 3: siesta_solve


--- Event Stage 4: siesta2qetsc

MatConvert             2 1.0 1.0843e-03 1.0 0.00e+00 0.0 0.0e+00 0.0e+00 0.0e+00  0  0  0  0  0   2  0  0  0  0     0
MatAssemblyBegin      10 1.0 4.5161e-0227.5 0.00e+00 0.0 0.0e+00 0.0e+00 4.0e+01  0  0  0  0  1  47  0  0  0 75     0
MatAssemblyEnd        10 1.0 3.2795e-03 1.0 0.00e+00 0.0 4.4e+03 7.8e+01 1.1e+01  0  0  0  0  0   5  0100100 21     0
VecSet                 3 1.0 1.2231e-05 1.3 0.00e+00 0.0 0.0e+00 0.0e+00 0.0e+00  0  0  0  0  0   0  0  0  0  0     0

--- Event Stage 5: qetsc_setup_eps

MatCholFctrSym         1 1.0 1.2014e-01 1.0 0.00e+00 0.0 0.0e+00 0.0e+00 5.0e+00  0  0  0  0  0   6  0  0  0  3     0
MatCholFctrNum         1 1.0 3.7594e-01 1.1 0.00e+00 0.0 0.0e+00 0.0e+00 0.0e+00  0  0  0  0  0  19  0  0  0  0     0
MatConvert             1 1.0 7.5079e-03 1.9 0.00e+00 0.0 0.0e+00 0.0e+00 0.0e+00  0  0  0  0  0   0  0  0  0  0     0
MatScale              16 1.0 3.2949e-03 3.6 1.27e+06 1.1 0.0e+00 0.0e+00 0.0e+00  0  0  0  0  0   0100  0  0  0 47577
MatAssemblyBegin      21 1.0 1.6130e-0196.7 0.00e+00 0.0 0.0e+00 0.0e+00 4.4e+01  0  0  0  0  1   2  0  0  0 27     0
MatAssemblyEnd        21 1.0 3.8229e-02 1.2 0.00e+00 0.0 2.6e+03 5.2e+02 4.0e+01  0  0  0  0  1   2  0  1  0 24     0
MatGetRow           2944 1.0 4.9276e-02 1.2 0.00e+00 0.0 0.0e+00 0.0e+00 0.0e+00  0  0  0  0  0   2  0  0  0  0     0
MatGetSubMatrice      10 1.0 5.9460e-01 1.9 0.00e+00 0.0 4.1e+05 5.8e+03 2.0e+01  1  0 28 62  0  23  0 99100 12     0
MatAXPY                9 1.0 1.7526e-01 1.1 0.00e+00 0.0 6.4e+02 5.2e+02 1.6e+01  0  0  0  0  0   9  0  0  0 10     0
MatRedundantMat       10 1.0 1.3048e+00 1.2 0.00e+00 0.0 4.1e+05 5.8e+03 1.0e+02  1  0 28 62  1  62  0100100 64     0
MatMPIConcateSeq      10 1.0 8.8333e-01 1.2 0.00e+00 0.0 1.9e+03 5.2e+02 8.5e+01  1  0  0  0  1  38  0  0  0 52     0
VecSet                 6 1.0 3.0056e-05 2.0 0.00e+00 0.0 0.0e+00 0.0e+00 0.0e+00  0  0  0  0  0   0  0  0  0  0     0
EPSSetUp               1 1.0 9.8603e-01 1.0 0.00e+00 0.0 8.3e+04 5.7e+03 9.9e+01  1  0  6 12  1  52  0 20 20 60     0
STSetUp                2 1.0 6.6992e-01 1.0 0.00e+00 0.0 6.4e+02 5.2e+02 2.5e+01  1  0  0  0  0  35  0  0  0 15     0
KSPSetUp               1 1.0 4.0719e-06 2.7 0.00e+00 0.0 0.0e+00 0.0e+00 0.0e+00  0  0  0  0  0   0  0  0  0  0     0
PCSetUp                1 1.0 5.0156e-01 1.0 0.00e+00 0.0 0.0e+00 0.0e+00 5.0e+00  1  0  0  0  0  26  0  0  0  3     0

--- Event Stage 6: qetsc_solve_eps

MatMult             3821 0.0 9.8228e+00 0.0 2.40e+09 0.0 2.3e+05 1.5e+03 0.0e+00  5 73 15  9  0  10 73 71 25  0 14056
MatSolve            1478 0.0 1.7543e+01 0.0 0.00e+00 0.0 8.7e+04 1.1e+04 6.8e+02 10  0  6 26  9  18  0 27 74 30     0
MatCholFctrNum        11 1.2 3.9133e+00 1.2 0.00e+00 0.0 0.0e+00 0.0e+00 0.0e+00  4  0  0  0  0   7  0  0  0  0     0
MatCopy               11 1.2 8.7527e-01 1.2 0.00e+00 0.0 0.0e+00 0.0e+00 5.5e+01  1  0  0  0  1   2  0  0  0  2     0
MatAssemblyBegin      22 1.2 2.2587e-0183.7 0.00e+00 0.0 0.0e+00 0.0e+00 7.3e+01  0  0  0  0  1   0  0  0  0  3     0
MatAssemblyEnd        22 1.2 5.0359e-02 1.2 0.00e+00 0.0 5.8e+03 5.2e+02 1.1e+02  0  0  0  0  1   0  0  2  0  5     0
MatGetRow          48576 1.2 7.4101e-01 1.4 0.00e+00 0.0 0.0e+00 0.0e+00 0.0e+00  1  0  0  0  0   1  0  0  0  0     0
MatZeroEntries        11 1.2 6.3973e-03 1.1 0.00e+00 0.0 0.0e+00 0.0e+00 0.0e+00  0  0  0  0  0   0  0  0  0  0     0
MatAXPY               11 1.2 1.7966e+00 1.2 0.00e+00 0.0 5.8e+03 5.2e+02 1.5e+02  2  0  0  0  2   3  0  2  0  6     0
VecDot               200 0.0 3.3628e-02 0.0 5.89e+05 0.0 0.0e+00 0.0e+00 5.4e+01  0  0  0  0  1   0  0  0  0  2   605
VecCopy              106 0.0 4.1080e-04 0.0 0.00e+00 0.0 0.0e+00 0.0e+00 0.0e+00  0  0  0  0  0   0  0  0  0  0     0
VecSet             129521439.1 3.3104e-021091.7 0.00e+00 0.0 0.0e+00 0.0e+00 0.0e+00  0  0  0  0  0   0  0  0  0  0     0
VecScatterBegin     6777 0.0 4.3649e-01 0.0 0.00e+00 0.0 3.1e+05 4.2e+03 6.7e+02  0  0 21 35  9   0  0 97100 29     0
VecScatterEnd       5299 0.0 5.7741e-01 0.0 0.00e+00 0.0 0.0e+00 0.0e+00 0.0e+00  0  0  0  0  0   0  0  0  0  0     0
VecSetRandom           9 0.0 7.9597e-03 0.0 0.00e+00 0.0 0.0e+00 0.0e+00 0.0e+00  0  0  0  0  0   0  0  0  0  0     0
EPSSetUp               9 1.0 6.1160e+00 1.1 0.00e+00 0.0 6.9e+03 4.3e+02 3.1e+02  7  0  0  0  4  13  0  2  0 14     0
EPSSolve               9 1.0 4.6285e+01 1.0 3.35e+09 0.0 3.2e+05 4.1e+03 2.3e+03 55100 22 35 30 100100100100100  4103
STSetUp               17 1.0 4.8166e+00 1.0 0.00e+00 0.0 5.1e+03 5.2e+02 1.8e+02  6  0  0  0  2  10  0  2  0  8     0
STApply             1478 0.0 2.1356e+01 0.0 9.30e+08 0.0 1.7e+05 6.4e+03 6.8e+02 12 27 12 29  9  22 27 54 84 30  2425
STMatSolve          1478 0.0 1.7755e+01 0.0 0.00e+00 0.0 8.7e+04 1.1e+04 6.8e+02 10  0  6 26  9  18  0 27 74 30     0
KSPSetUp              11 1.2 2.0447e-05 2.1 0.00e+00 0.0 0.0e+00 0.0e+00 0.0e+00  0  0  0  0  0   0  0  0  0  0     0
KSPSolve            1478 0.0 1.7594e+01 0.0 0.00e+00 0.0 8.7e+04 1.1e+04 6.8e+02 10  0  6 26  9  18  0 27 74 30     0
PCSetUp               11 1.2 3.9136e+00 1.2 0.00e+00 0.0 0.0e+00 0.0e+00 0.0e+00  4  0  0  0  0   7  0  0  0  0     0
PCApply             1478 0.0 1.7548e+01 0.0 0.00e+00 0.0 8.7e+04 1.1e+04 6.8e+02 10  0  6 26  9  18  0 27 74 30     0
BVCreate              20 0.0 1.3389e-02 0.0 0.00e+00 0.0 0.0e+00 0.0e+00 8.5e+01  0  0  0  0  1   0  0  0  0  4     0
BVCopy               106 0.0 9.4050e-04 0.0 0.00e+00 0.0 0.0e+00 0.0e+00 0.0e+00  0  0  0  0  0   0  0  0  0  0     0
BVMultVec           2197 0.0 4.1895e-01 0.0 3.47e+08 0.0 0.0e+00 0.0e+00 0.0e+00  0  9  0  0  0   0  9  0  0  0 40144
BVMultInPlace         46 0.0 1.3179e-01 0.0 2.43e+08 0.0 0.0e+00 0.0e+00 0.0e+00  0  9  0  0  0   0  9  0  0  0 133939
BVDotVec            2197 0.0 5.9759e+00 0.0 1.74e+09 0.0 1.4e+05 1.5e+03 1.1e+03  3 52  9  5 14   6 52 42 15 47 16616
BVOrthogonalizeV    1332 0.0 6.3919e+00 0.0 2.08e+09 0.0 1.4e+05 1.5e+03 1.1e+03  4 61  9  5 14   7 61 42 15 47 18166
BVScale             1478 0.0 9.8505e-03 0.0 2.18e+06 0.0 0.0e+00 0.0e+00 0.0e+00  0  0  0  0  0   0  0  0  0  0 12729
BVNormVec            200 0.0 5.2145e-01 0.0 1.26e+08 0.0 6.9e+03 1.5e+03 5.4e+01  0  2  0  0  1   0  2  2  1  2  8097
BVSetRandom            9 0.0 8.0580e-03 0.0 0.00e+00 0.0 0.0e+00 0.0e+00 0.0e+00  0  0  0  0  0   0  0  0  0  0     0
DSSolve               44 0.0 2.2223e-01 0.0 0.00e+00 0.0 0.0e+00 0.0e+00 0.0e+00  0  0  0  0  0   0  0  0  0  0     0
DSVectors           1785 0.0 4.3280e-03 0.0 0.00e+00 0.0 0.0e+00 0.0e+00 0.0e+00  0  0  0  0  0   0  0  0  0  0     0
DSOther               46 0.0 7.1254e-03 0.0 0.00e+00 0.0 0.0e+00 0.0e+00 0.0e+00  0  0  0  0  0   0  0  0  0  0     0

--- Event Stage 7: qetsc_eigvals


--- Event Stage 8: qetsc_density

VecCopy             3456 1.0 8.4867e-03 1.1 0.00e+00 0.0 0.0e+00 0.0e+00 0.0e+00  0  0  0  0  0   0  0  0  0  0     0
VecSet                 1 1.0 1.2316e-05 2.6 0.00e+00 0.0 0.0e+00 0.0e+00 0.0e+00  0  0  0  0  0   0  0  0  0  0     0
VecScatterBegin     6912 1.0 7.0921e-01 1.1 0.00e+00 0.0 4.4e+05 1.8e+02 3.5e+03  1  0 30  2 46  11  0 60 79 50     0
VecScatterEnd       3456 1.0 1.3394e+00 1.1 0.00e+00 0.0 0.0e+00 0.0e+00 0.0e+00  2  0  0  0  0  22  0  0  0  0     0
BVCopy              3456 1.0 2.5037e-02 1.1 0.00e+00 0.0 0.0e+00 0.0e+00 0.0e+00  0  0  0  0  0   0  0  0  0  0     0

--- Event Stage 9: Unknown


--- Event Stage 10: siesta_misc


--- Event Stage 11: siesta_move


--- Event Stage 12: siesta_analysis


--- Event Stage 13: qetsc_clean


--- Event Stage 14: siesta_end

------------------------------------------------------------------------------------------------------------------------

Memory usage is given in bytes:

Object Type          Creations   Destructions     Memory  Descendants' Mem.
Reports information only for process 0.

--- Event Stage 0: Main Stage


--- Event Stage 1: siesta_init


--- Event Stage 2: siesta_forces


--- Event Stage 3: siesta_solve


--- Event Stage 4: siesta2qetsc

              Matrix     9              0            0     0.
              Vector    19              1         1648     0.
      Vector Scatter     4              0            0     0.
           Index Set     4              4         7552     0.

--- Event Stage 5: qetsc_setup_eps

              Matrix    19              3      2242928     0.
              Vector    55             11        57392     0.
      Vector Scatter    10              1         1072     0.
           Index Set    45             38        47456     0.
          EPS Solver     2              0            0     0.
  Spectral Transform     2              0            0     0.
       Krylov Solver     2              0            0     0.
      Preconditioner     2              0            0     0.
       Basis Vectors     3              0            0     0.
         PetscRandom     1              0            0     0.
              Region     2              0            0     0.
       Direct Solver     2              0            0     0.

--- Event Stage 6: qetsc_solve_eps

              Matrix    27             27     22833396     0.
              Vector   117            117       757080     0.
      Vector Scatter    18             18        19296     0.
           Index Set    36             36        67968     0.
       Basis Vectors     9              9         9504     0.

--- Event Stage 7: qetsc_eigvals


--- Event Stage 8: qetsc_density

              Vector    10              9       120816     0.
      Vector Scatter   577            576       619128     0.
           Index Set  1153           1153      1009936     0.

--- Event Stage 9: Unknown


--- Event Stage 10: siesta_misc


--- Event Stage 11: siesta_move

              Matrix     0             25     20106284     0.
              Vector     0             63      1369520     0.
      Vector Scatter     0             14        14176     0.
           Index Set     0              7         5488     0.
          EPS Solver     0              2        23528     0.
  Spectral Transform     0              2         1632     0.
       Krylov Solver     0              2         2336     0.
      Preconditioner     0              2         1952     0.
       Basis Vectors     0              3         3168     0.
         PetscRandom     0              1          638     0.
              Region     0              2         1312     0.
       Direct Solver     0              2       109992     0.

--- Event Stage 12: siesta_analysis


--- Event Stage 13: qetsc_clean


--- Event Stage 14: siesta_end

              Viewer     1              0            0     0.
========================================================================================================================
Average time to get PetscTime(): 1.3825e-07
Average time for MPI_Barrier(): 3.05975e-06
Average time for zero size MPI_Send(): 1.11843e-05
#PETSc Option Table entries:
-eps_interval -2.3,0.
-eps_krylovschur_detect_zeros 0
-eps_krylovschur_partitions 64
-ioptbin 7
-ioptdensity 0
-ioptinertia 1
-ioptleft 2
-ioptwrite 1
-log_view
-mat_mumps_cntl_3 1e-12
-mat_mumps_icntl_13 1
-mat_mumps_icntl_23 0
-mat_mumps_icntl_24 1
-mat_mumps_icntl_7 5
-mat_type mpisbaij
#End of PETSc Option Table entries
Compiled with FORTRAN kernels
Compiled with full precision matrices (default)
sizeof(short) 2 sizeof(int) 4 sizeof(long) 8 sizeof(void*) 8 sizeof(PetscScalar) 8 sizeof(PetscInt) 4
Configure options: --known-has-attribute-aligned=1 --download-chaco=0 --download-cmake=0 --download-hypre=0 --download-metis=1 --download-mumps=1 --download-parmetis=1 --download-plapack=0 --download-prometheus=0 --download-ptscotch=1 --download-spai=0 --download-spooles=0 --download-superlu=0 --download-superlu_dist=0 --download-triangle=0 --known-bits-per-byte=8 --known-level1-dcache-assoc=0 --known-level1-dcache-linesize=32 --known-level1-dcache-size=32768 --known-memcmp-ok=1 --known-mpi-c-double-complex=1 --known-mpi-int64_t=1 --known-mpi-long-double=1 --known-mpi-shared-libraries=0 --known-sdot-returns-double=0 --known-sizeof-MPI_Comm=4 --known-sizeof-MPI_Fint=4 --known-sizeof-char=1 --known-sizeof-double=8 --known-sizeof-float=4 --known-sizeof-int=4 --known-sizeof-long-long=8 --known-sizeof-long=8 --known-sizeof-short=2 --known-sizeof-size_t=8 --known-sizeof-void-p=8 --known-snrm2-returns-double=0 --with-batch=1 --with-blacs-include=/soft/libraries/alcf/current/xl/SCALAPACK/ --with-blacs-lib=/soft/libraries/alcf/current/xl/SCALAPACK/lib/libscalapack.a --with-blas-lapack-lib="-L/soft/libraries/alcf/current/xl/LAPACK/lib -llapack -L/soft/libraries/alcf/current/xl/BLAS/lib -lblas" --with-cc=mpixlc_r --with-clib-autodetect=0 --with-cxx=mpixlcxx_r --with-cxxlib-autodetect=0 --with-debugging=0 --with-fc="mpixlf77_r -qnosave" --with-fortran-kernels=1 --with-fortranlib-autodetect=0 --with-is-color-value-type=short --with-scalapack-include=/soft/libraries/alcf/current/xl/SCALAPACK/ --with-scalapack-lib=/soft/libraries/alcf/current/xl/SCALAPACK/lib/libscalapack.a --with-shared-libraries=0 --with-x=0 -COPTFLAGS=" -g -O3 -qhot=level=0 -qsimd=auto -qmaxmem=-1 -qstrict -qstrict_induction" -CXXOPTFLAGS="  -g -O3 -qhot=level=0 -qsimd=auto -qmaxmem=-1 -qstrict -qstrict_induction" -FOPTFLAGS=" -g -O3 -qhot=level=0 -qsimd=auto -qmaxmem=-1 -qstrict -qstrict_induction" LIBS="-lmpichcxx-gcc -lmpichf77-gcc -L/soft/compilers/ibmcmp-feb2015/vacpp/bg/12.1/bglib64 -libmc++ -L/soft/compilers/ibmcmp-feb2015/xlf/bg/14.1/bglib64 -lxlf90_r -lxlomp_ser -lxlfmath" PETSC_ARCH=arch-xl
-----------------------------------------
Libraries compiled on Sat Aug 20 04:19:47 2016 on vestalac2 
Machine characteristics: Linux-2.6.32-573.18.1.el6.ppc64-ppc64-with-redhat-6.7-Santiago
Using PETSc directory: /home/keceli/scratch2/petsc
Using PETSc arch: arch-xl
-----------------------------------------

Using C compiler: mpixlc_r   -g -O3 -qhot=level=0 -qsimd=auto -qmaxmem=-1 -qstrict -qstrict_induction  ${COPTFLAGS} ${CFLAGS}
Using Fortran compiler: mpixlf77_r -qnosave  -g -O3 -qhot=level=0 -qsimd=auto -qmaxmem=-1 -qstrict -qstrict_induction   ${FOPTFLAGS} ${FFLAGS} 
-----------------------------------------

Using include paths: -I/home/keceli/scratch2/petsc/arch-xl/include -I/home/keceli/scratch2/petsc/include -I/home/keceli/scratch2/petsc/include -I/home/keceli/scratch2/petsc/arch-xl/include -I/bgsys/drivers/V1R2M4/ppc64/comm/include -I/bgsys/drivers/V1R2M4/ppc64/comm/lib/xl -I/bgsys/drivers/V1R2M4/ppc64 -I/bgsys/drivers/V1R2M4/ppc64/comm/sys/include -I/bgsys/drivers/V1R2M4/ppc64/spi/include -I/bgsys/drivers/V1R2M4/ppc64/spi/include/kernel/cnk
-----------------------------------------

Using C linker: mpixlc_r
Using Fortran linker: mpixlf77_r -qnosave
Using libraries: -Wl,-rpath,/home/keceli/scratch2/petsc/arch-xl/lib -L/home/keceli/scratch2/petsc/arch-xl/lib -lpetsc -Wl,-rpath,/home/keceli/scratch2/petsc/arch-xl/lib -L/home/keceli/scratch2/petsc/arch-xl/lib -lcmumps -ldmumps -lsmumps -lzmumps -lmumps_common -lpord -Wl,-rpath,/soft/libraries/alcf/current/xl/SCALAPACK/lib -L/soft/libraries/alcf/current/xl/SCALAPACK/lib -lscalapack -L/soft/libraries/alcf/current/xl/LAPACK/lib -llapack -L/soft/libraries/alcf/current/xl/BLAS/lib -lblas -lparmetis -lmetis -lptesmumps -lptscotch -lptscotcherr -lscotch -lscotcherr -lrt -lm -lpthread -ldl -lmpichcxx-gcc -lmpichf77-gcc -L/soft/compilers/ibmcmp-feb2015/vacpp/bg/12.1/bglib64 -libmc++ -L/soft/compilers/ibmcmp-feb2015/xlf/bg/14.1/bglib64 -lxlf90_r -lxlomp_ser -lxlfmath
-----------------------------------------

