s.subSiesta: Submission time = 25s00m18h
s.subSiesta: Job name = qp64_s64_n4_c16_vesta
s.subSiesta: Number of nodes = 4
s.subSiesta: Number of cores = 64
s.subSiesta: Number of cores/node = 16
s.subSiesta: Number of slices = 64
s.subSiesta: Mapping = ABCDET
25s00m18h
#QETSc options
-ioptbin 7
-ioptdensity 0
-ioptinertia 1
-ioptleft 2
-ioptwrite 1 
#-roptbuffer 0.01
#-roptdiff 0.02

#PETSc options
-mat_type mpisbaij
-log_view
#-mat_view
#-memory_view
#-mat_mumps_icntl_13 1 #turn off scaLAPACK for matrix inertia
#-mat_mumps_icntl_24 1 #null pivot row detection for matrix inertia
-mat_mumps_icntl_23 0
#-mat_mumps_icntl_28 1 # serial analysis
#-mat_mumps_icntl_28 2 #parallel analysis
#-mat_mumps_icntl_29 1 #ptscotch
#-mat_mumps_icntl_29 2 #parmetis
-mat_mumps_icntl_7 5 #metis
#-malloc_info 
#-mat_view ::ascii_info 
#-mat_getrow_uppertriangular 1
#-st_type sinvert 
#-st_ksp_type preonly 
#-st_pc_type cholesky 
#-st_pc_factor_mat_solver_package mumps 

#SLEPc options

#-eps_krylovschur_partitions 1  
-eps_interval -2.3,0.
#-eps_tol  1.e-8
-eps_krylovschur_detect_zeros 0
#-eps_purify 1
SystemName          polyethylene
SystemLabel         polyethylene
NumberOfAtoms       6
NumberOfSpecies     2

%block ChemicalSpeciesLabel
 1  6  C
 2  1  H
%endblock ChemicalSpeciesLabel

DM.MixingWeight 0.3
DM.NumberPulay 3
#BlockSize 23
SolutionMethod  qetsc
WriteDM .false.
WriteDM.NetCDF .false.
WriteDMHS.NetCDF .false.
LongOutput .false.
#MaxSCFIterations 1

PAO.BasisType split
PAO.BasisSize DZP

LatticeConstant 1.00 Ang
%block LatticeVectors
20.000  0.000  0.000
 0.000 20.000  0.000
 0.000  0.000  2.572
%endblock LatticeVectors

%block kgrid_Monkhorst_Pack
1 0 0 0.0
0 1 0 0.0
0 0 1 0.0
%endblock kgrid_Monkhorst_Pack

%block SuperCell
1 0 0
0 1 0
0 0 64
%endblock SuperCell

AtomicCoordinatesFormat Ang
%block AtomicCoordinatesAndAtomicSpecies
  0.31237500000000001       0.28138740000000001       0.64300000000000002     1
   1.3964999999999999        7.3970400000000006E-002  0.64300000000000002     2
  0.21462000000000001        1.3794480000000002       0.64300000000000002     2
 -0.31237500000000001      -0.28138740000000001      -0.64300000000000002     1
  -1.3964999999999999       -7.3970400000000006E-002 -0.64300000000000002     2
 -0.21462000000000001       -1.3794480000000002      -0.64300000000000002     2
%endblock AtomicCoordinatesAndAtomicSpecies
Siesta Version: siesta-trunk-492
Architecture  : powerpc64-unknown-linux-gnu--Xlf
Compiler flags: mpixlf90_r -I/home/keceli/scratch2/petsc/include -I/home/keceli/scratch2/petssc/arch-xl/include -I/bgsys/drivers/V1R2M4/ppc64/comm/include -I/bgsys/drivers/V1R2M4/ppc64/comm/lib/xl -I/bgsys/drivers/V1R2M4/ppc64 -I/bgsys/drivers/V1R2M4/ppc64/comm/sys/include -I/bgsys/drivers/V1R2M4/ppc64/spi/include -I/bgsys/drivers/V1R2M4/ppc64/spi/include/kernel/cnk -I/home/keceli/scratch2/slepcfork/include -I/home/keceli/scratch2/slepcfork/arch-xl/include
PP flags      : -WF,-DMPI -WF,-DFC_HAVE_ABORT -WF,-DBSC_CELLXC -WF,-DMPI_TIMING 
PARALLEL version

* Running on   64 nodes in parallel
>> Start of run:  11-JAN-2017  18:01:40

                           ***********************       
                           *  WELCOME TO SIESTA  *       
                           ***********************       
WARNING: Siesta is reading its input from file INPUT_DEBUG

reinit: -----------------------------------------------------------------------
reinit: System Name: polyethylene
reinit: -----------------------------------------------------------------------
reinit: System Label: polyethylene                                                
reinit: -----------------------------------------------------------------------

initatom: Reading input for the pseudopotentials and atomic orbitals ----------
Species number:   1 Atomic number:    6 Label: C
Species number:   2 Atomic number:    1 Label: H
 
Ground state valence configuration:   2s02  2p02
Reading pseudopotential information in formatted form from C.psf

Valence configuration for pseudopotential generation:
2s( 2.00) rc: 1.54
2p( 2.00) rc: 1.54
3d( 0.00) rc: 1.54
4f( 0.00) rc: 1.54
Ground state valence configuration:   1s01
Reading pseudopotential information in formatted form from H.psf

Valence configuration for pseudopotential generation:
1s( 1.00) rc: 1.31
2p( 0.00) rc: 1.31
3d( 0.00) rc: 0.37
4f( 0.00) rc: 1.31
For C, standard SIESTA heuristics set lmxkb to 3
 (one more than the basis l, including polarization orbitals).
Use PS.lmax or PS.KBprojectors blocks to override.
For H, standard SIESTA heuristics set lmxkb to 2
 (one more than the basis l, including polarization orbitals).
Use PS.lmax or PS.KBprojectors blocks to override.

<basis_specs>
===============================================================================
C                    Z=   6    Mass=  12.010        Charge= 0.17977+309
Lmxo=1 Lmxkb= 3    BasisType=split      Semic=F
L=0  Nsemic=0  Cnfigmx=2
          n=1  nzeta=2  polorb=0
            splnorm:   0.15000    
               vcte:    0.0000    
               rinn:    0.0000    
               qcoe:    0.0000    
               qyuk:    0.0000    
               qwid:   0.10000E-01
                rcs:    0.0000      0.0000    
            lambdas:    1.0000      1.0000    
L=1  Nsemic=0  Cnfigmx=2
          n=1  nzeta=2  polorb=1
            splnorm:   0.15000    
               vcte:    0.0000    
               rinn:    0.0000    
               qcoe:    0.0000    
               qyuk:    0.0000    
               qwid:   0.10000E-01
                rcs:    0.0000      0.0000    
            lambdas:    1.0000      1.0000    
-------------------------------------------------------------------------------
L=0  Nkbl=1  erefs: 0.17977+309
L=1  Nkbl=1  erefs: 0.17977+309
L=2  Nkbl=1  erefs: 0.17977+309
L=3  Nkbl=1  erefs: 0.17977+309
===============================================================================
</basis_specs>

atom: Called for C                     (Z =   6)

read_vps: Pseudopotential generation method:
read_vps: ATM3      Troullier-Martins                       
Total valence charge:    4.00000

xc_check: Exchange-correlation functional:
xc_check: Ceperley-Alder
V l=0 = -2*Zval/r beyond r=  1.5227
V l=1 = -2*Zval/r beyond r=  1.5227
V l=2 = -2*Zval/r beyond r=  1.5227
V l=3 = -2*Zval/r beyond r=  1.5038
All V_l potentials equal beyond r=  1.5227
This should be close to max(r_c) in ps generation
All pots = -2*Zval/r beyond r=  1.5227

VLOCAL1: 99.0% of the norm of Vloc inside     18.722 Ry
VLOCAL1: 99.9% of the norm of Vloc inside     42.668 Ry
atom: Maximum radius for 4*pi*r*r*local-pseudopot. charge    1.83678
atom: Maximum radius for r*vlocal+2*Zval:    1.58088
GHOST: No ghost state for L =  0
GHOST: No ghost state for L =  1
GHOST: No ghost state for L =  2
GHOST: No ghost state for L =  3

KBgen: Kleinman-Bylander projectors: 
   l= 0   rc=  1.747182   el= -1.001948   Ekb=  4.950286   kbcos=  0.319819
   l= 1   rc=  1.747182   el= -0.398598   Ekb= -4.108613   kbcos= -0.367053
   l= 2   rc=  1.930978   el=  0.002326   Ekb= -1.042946   kbcos= -0.009366
   l= 3   rc=  2.055542   el=  0.003420   Ekb= -0.408633   kbcos= -0.001262

KBgen: Total number of  Kleinman-Bylander projectors:   16
atom: -------------------------------------------------------------------------

atom: SANKEY-TYPE ORBITALS:
atom: Selected multiple-zeta basis: split     

SPLIT: Orbitals with angular momentum L= 0

SPLIT: Basis orbitals for state 2s

SPLIT: PAO cut-off radius determined from an
SPLIT: energy shift=  0.020000 Ry

   izeta = 1
                 lambda =    1.000000
                     rc =    4.191849
                 energy =   -0.983897
                kinetic =    0.880927
    potential(screened) =   -1.864824
       potential(ionic) =   -5.475687

   izeta = 2
                 rmatch =    3.431921
              splitnorm =    0.150000
                 energy =   -0.853083
                kinetic =    1.298222
    potential(screened) =   -2.151305
       potential(ionic) =   -5.995890

SPLIT: Orbitals with angular momentum L= 1

SPLIT: Basis orbitals for state 2p

SPLIT: PAO cut-off radius determined from an
SPLIT: energy shift=  0.020000 Ry

   izeta = 1
                 lambda =    1.000000
                     rc =    4.870301
                 energy =   -0.379093
                kinetic =    2.540023
    potential(screened) =   -2.919116
       potential(ionic) =   -6.427960

   izeta = 2
                 rmatch =    3.475094
              splitnorm =    0.150000
                 energy =   -0.215057
                kinetic =    3.814571
    potential(screened) =   -4.029628
       potential(ionic) =   -7.920250

POLgen: Perturbative polarization orbital with L=  2

POLgen: Polarization orbital for state 2p

   izeta = 1
                     rc =    4.870301
                 energy =    1.280996
                kinetic =    2.631310
    potential(screened) =   -1.350314
       potential(ionic) =   -4.295640
atom: Total number of Sankey-type orbitals: 13

atm_pop: Valence configuration (for local Pseudopot. screening):
 2s( 2.00)                                                            
 2p( 2.00)                                                            
Vna: chval, zval:    4.00000   4.00000

Vna:  Cut-off radius for the neutral-atom potential:   4.870301

atom: _________________________________________________________________________

<basis_specs>
===============================================================================
H                    Z=   1    Mass=  1.0100        Charge= 0.17977+309
Lmxo=0 Lmxkb= 2    BasisType=split      Semic=F
L=0  Nsemic=0  Cnfigmx=1
          n=1  nzeta=2  polorb=1
            splnorm:   0.15000    
               vcte:    0.0000    
               rinn:    0.0000    
               qcoe:    0.0000    
               qyuk:    0.0000    
               qwid:   0.10000E-01
                rcs:    0.0000      0.0000    
            lambdas:    1.0000      1.0000    
-------------------------------------------------------------------------------
L=0  Nkbl=1  erefs: 0.17977+309
L=1  Nkbl=1  erefs: 0.17977+309
L=2  Nkbl=1  erefs: 0.17977+309
===============================================================================
</basis_specs>

atom: Called for H                     (Z =   1)

read_vps: Pseudopotential generation method:
read_vps: ATM3      Troullier-Martins                       
Total valence charge:    1.00000

xc_check: Exchange-correlation functional:
xc_check: Ceperley-Alder
V l=0 = -2*Zval/r beyond r=  1.2977
V l=1 = -2*Zval/r beyond r=  1.2815
V l=2 = -2*Zval/r beyond r=  1.1307
All V_l potentials equal beyond r=  1.2977
This should be close to max(r_c) in ps generation
All pots = -2*Zval/r beyond r=  1.2977

VLOCAL1: 99.0% of the norm of Vloc inside     25.776 Ry
VLOCAL1: 99.9% of the norm of Vloc inside     58.745 Ry
atom: Maximum radius for 4*pi*r*r*local-pseudopot. charge    1.52711
atom: Maximum radius for r*vlocal+2*Zval:    1.28155
GHOST: No ghost state for L =  0
GHOST: No ghost state for L =  1
GHOST: No ghost state for L =  2

KBgen: Kleinman-Bylander projectors: 
   l= 0   rc=  1.434438   el= -0.467325   Ekb= -1.940326   kbcos= -0.353040
   l= 1   rc=  1.508111   el=  0.001430   Ekb= -0.480826   kbcos= -0.024144
   l= 2   rc=  1.527112   el=  0.002365   Ekb= -0.479392   kbcos= -0.001656

KBgen: Total number of  Kleinman-Bylander projectors:    9
atom: -------------------------------------------------------------------------

atom: SANKEY-TYPE ORBITALS:
atom: Selected multiple-zeta basis: split     

SPLIT: Orbitals with angular momentum L= 0

SPLIT: Basis orbitals for state 1s

SPLIT: PAO cut-off radius determined from an
SPLIT: energy shift=  0.020000 Ry

   izeta = 1
                 lambda =    1.000000
                     rc =    4.828263
                 energy =   -0.449375
                kinetic =    0.925762
    potential(screened) =   -1.375137
       potential(ionic) =   -1.911235

   izeta = 2
                 rmatch =    3.854947
              splitnorm =    0.150000
                 energy =   -0.336149
                kinetic =    1.498089
    potential(screened) =   -1.834238
       potential(ionic) =   -2.406110

POLgen: Perturbative polarization orbital with L=  1

POLgen: Polarization orbital for state 1s

   izeta = 1
                     rc =    4.828263
                 energy =    0.707053
                kinetic =    1.398668
    potential(screened) =   -0.691614
       potential(ionic) =   -1.171973
atom: Total number of Sankey-type orbitals:  5

atm_pop: Valence configuration (for local Pseudopot. screening):
 1s( 1.00)                                                            
Vna: chval, zval:    1.00000   1.00000

Vna:  Cut-off radius for the neutral-atom potential:   4.828263

atom: _________________________________________________________________________

prinput: Basis input ----------------------------------------------------------

PAO.BasisType split     

%block ChemicalSpeciesLabel
    1    6 C                       # Species index, atomic number, species label
    2    1 H                       # Species index, atomic number, species label
%endblock ChemicalSpeciesLabel

%block PAO.Basis                 # Define Basis set
C                     2                    # Species label, number of l-shells
 n=2   0   2                         # n, l, Nzeta 
   4.192      3.432   
   1.000      1.000   
 n=2   1   2 P   1                   # n, l, Nzeta, Polarization, NzetaPol
   4.870      3.475   
   1.000      1.000   
H                     1                    # Species label, number of l-shells
 n=1   0   2 P   1                   # n, l, Nzeta, Polarization, NzetaPol
   4.828      3.855   
   1.000      1.000   
%endblock PAO.Basis

prinput: ----------------------------------------------------------------------

coor:   Atomic-coordinates input format  =     Cartesian coordinates
coor:                                          (in Angstroms)

siesta: Atomic coordinates (Bohr) and species
siesta:      0.59030   0.53175   1.21509  1        1
siesta:      2.63900   0.13978   1.21509  2        2
siesta:      0.40557   2.60678   1.21509  2        3
siesta:     -0.59030  -0.53175  -1.21509  1        4
siesta:     -2.63900  -0.13978  -1.21509  2        5
siesta:     -0.40557  -2.60678  -1.21509  2        6
siesta:      0.59030   0.53175   6.07547  1        7
siesta:      2.63900   0.13978   6.07547  2        8
siesta:      0.40557   2.60678   6.07547  2        9
siesta:     -0.59030  -0.53175   3.64528  1       10
siesta:     -2.63900  -0.13978   3.64528  2       11
siesta:     -0.40557  -2.60678   3.64528  2       12
siesta:      0.59030   0.53175  10.93585  1       13
siesta:      2.63900   0.13978  10.93585  2       14
siesta:      0.40557   2.60678  10.93585  2       15
siesta:     -0.59030  -0.53175   8.50566  1       16
siesta:     -2.63900  -0.13978   8.50566  2       17
siesta:     -0.40557  -2.60678   8.50566  2       18
siesta:      0.59030   0.53175  15.79623  1       19
siesta:      2.63900   0.13978  15.79623  2       20
siesta:      0.40557   2.60678  15.79623  2       21
siesta:     -0.59030  -0.53175  13.36604  1       22
siesta:     -2.63900  -0.13978  13.36604  2       23
siesta:     -0.40557  -2.60678  13.36604  2       24
siesta:      0.59030   0.53175  20.65660  1       25
siesta:      2.63900   0.13978  20.65660  2       26
siesta:      0.40557   2.60678  20.65660  2       27
siesta:     -0.59030  -0.53175  18.22642  1       28
siesta:     -2.63900  -0.13978  18.22642  2       29
siesta:     -0.40557  -2.60678  18.22642  2       30
siesta:      0.59030   0.53175  25.51698  1       31
siesta:      2.63900   0.13978  25.51698  2       32
siesta:      0.40557   2.60678  25.51698  2       33
siesta:     -0.59030  -0.53175  23.08679  1       34
siesta:     -2.63900  -0.13978  23.08679  2       35
siesta:     -0.40557  -2.60678  23.08679  2       36
siesta:      0.59030   0.53175  30.37736  1       37
siesta:      2.63900   0.13978  30.37736  2       38
siesta:      0.40557   2.60678  30.37736  2       39
siesta:     -0.59030  -0.53175  27.94717  1       40
siesta:     -2.63900  -0.13978  27.94717  2       41
siesta:     -0.40557  -2.60678  27.94717  2       42
siesta:      0.59030   0.53175  35.23774  1       43
siesta:      2.63900   0.13978  35.23774  2       44
siesta:      0.40557   2.60678  35.23774  2       45
siesta:     -0.59030  -0.53175  32.80755  1       46
siesta:     -2.63900  -0.13978  32.80755  2       47
siesta:     -0.40557  -2.60678  32.80755  2       48
siesta:      0.59030   0.53175  40.09811  1       49
siesta:      2.63900   0.13978  40.09811  2       50
siesta:      0.40557   2.60678  40.09811  2       51
siesta:     -0.59030  -0.53175  37.66793  1       52
siesta:     -2.63900  -0.13978  37.66793  2       53
siesta:     -0.40557  -2.60678  37.66793  2       54
siesta:      0.59030   0.53175  44.95849  1       55
siesta:      2.63900   0.13978  44.95849  2       56
siesta:      0.40557   2.60678  44.95849  2       57
siesta:     -0.59030  -0.53175  42.52830  1       58
siesta:     -2.63900  -0.13978  42.52830  2       59
siesta:     -0.40557  -2.60678  42.52830  2       60
siesta:      0.59030   0.53175  49.81887  1       61
siesta:      2.63900   0.13978  49.81887  2       62
siesta:      0.40557   2.60678  49.81887  2       63
siesta:     -0.59030  -0.53175  47.38868  1       64
siesta:     -2.63900  -0.13978  47.38868  2       65
siesta:     -0.40557  -2.60678  47.38868  2       66
siesta:      0.59030   0.53175  54.67925  1       67
siesta:      2.63900   0.13978  54.67925  2       68
siesta:      0.40557   2.60678  54.67925  2       69
siesta:     -0.59030  -0.53175  52.24906  1       70
siesta:     -2.63900  -0.13978  52.24906  2       71
siesta:     -0.40557  -2.60678  52.24906  2       72
siesta:      0.59030   0.53175  59.53962  1       73
siesta:      2.63900   0.13978  59.53962  2       74
siesta:      0.40557   2.60678  59.53962  2       75
siesta:     -0.59030  -0.53175  57.10944  1       76
siesta:     -2.63900  -0.13978  57.10944  2       77
siesta:     -0.40557  -2.60678  57.10944  2       78
siesta:      0.59030   0.53175  64.40000  1       79
siesta:      2.63900   0.13978  64.40000  2       80
siesta:      0.40557   2.60678  64.40000  2       81
siesta:     -0.59030  -0.53175  61.96981  1       82
siesta:     -2.63900  -0.13978  61.96981  2       83
siesta:     -0.40557  -2.60678  61.96981  2       84
siesta:      0.59030   0.53175  69.26038  1       85
siesta:      2.63900   0.13978  69.26038  2       86
siesta:      0.40557   2.60678  69.26038  2       87
siesta:     -0.59030  -0.53175  66.83019  1       88
siesta:     -2.63900  -0.13978  66.83019  2       89
siesta:     -0.40557  -2.60678  66.83019  2       90
siesta:      0.59030   0.53175  74.12076  1       91
siesta:      2.63900   0.13978  74.12076  2       92
siesta:      0.40557   2.60678  74.12076  2       93
siesta:     -0.59030  -0.53175  71.69057  1       94
siesta:     -2.63900  -0.13978  71.69057  2       95
siesta:     -0.40557  -2.60678  71.69057  2       96
siesta:      0.59030   0.53175  78.98113  1       97
siesta:      2.63900   0.13978  78.98113  2       98
siesta:      0.40557   2.60678  78.98113  2       99
siesta:     -0.59030  -0.53175  76.55095  1      100
siesta:     -2.63900  -0.13978  76.55095  2      101
siesta:     -0.40557  -2.60678  76.55095  2      102
siesta:      0.59030   0.53175  83.84151  1      103
siesta:      2.63900   0.13978  83.84151  2      104
siesta:      0.40557   2.60678  83.84151  2      105
siesta:     -0.59030  -0.53175  81.41132  1      106
siesta:     -2.63900  -0.13978  81.41132  2      107
siesta:     -0.40557  -2.60678  81.41132  2      108
siesta:      0.59030   0.53175  88.70189  1      109
siesta:      2.63900   0.13978  88.70189  2      110
siesta:      0.40557   2.60678  88.70189  2      111
siesta:     -0.59030  -0.53175  86.27170  1      112
siesta:     -2.63900  -0.13978  86.27170  2      113
siesta:     -0.40557  -2.60678  86.27170  2      114
siesta:      0.59030   0.53175  93.56227  1      115
siesta:      2.63900   0.13978  93.56227  2      116
siesta:      0.40557   2.60678  93.56227  2      117
siesta:     -0.59030  -0.53175  91.13208  1      118
siesta:     -2.63900  -0.13978  91.13208  2      119
siesta:     -0.40557  -2.60678  91.13208  2      120
siesta:      0.59030   0.53175  98.42264  1      121
siesta:      2.63900   0.13978  98.42264  2      122
siesta:      0.40557   2.60678  98.42264  2      123
siesta:     -0.59030  -0.53175  95.99246  1      124
siesta:     -2.63900  -0.13978  95.99246  2      125
siesta:     -0.40557  -2.60678  95.99246  2      126
siesta:      0.59030   0.53175 103.28302  1      127
siesta:      2.63900   0.13978 103.28302  2      128
siesta:      0.40557   2.60678 103.28302  2      129
siesta:     -0.59030  -0.53175 100.85283  1      130
siesta:     -2.63900  -0.13978 100.85283  2      131
siesta:     -0.40557  -2.60678 100.85283  2      132
siesta:      0.59030   0.53175 108.14340  1      133
siesta:      2.63900   0.13978 108.14340  2      134
siesta:      0.40557   2.60678 108.14340  2      135
siesta:     -0.59030  -0.53175 105.71321  1      136
siesta:     -2.63900  -0.13978 105.71321  2      137
siesta:     -0.40557  -2.60678 105.71321  2      138
siesta:      0.59030   0.53175 113.00378  1      139
siesta:      2.63900   0.13978 113.00378  2      140
siesta:      0.40557   2.60678 113.00378  2      141
siesta:     -0.59030  -0.53175 110.57359  1      142
siesta:     -2.63900  -0.13978 110.57359  2      143
siesta:     -0.40557  -2.60678 110.57359  2      144
siesta:      0.59030   0.53175 117.86416  1      145
siesta:      2.63900   0.13978 117.86416  2      146
siesta:      0.40557   2.60678 117.86416  2      147
siesta:     -0.59030  -0.53175 115.43397  1      148
siesta:     -2.63900  -0.13978 115.43397  2      149
siesta:     -0.40557  -2.60678 115.43397  2      150
siesta:      0.59030   0.53175 122.72453  1      151
siesta:      2.63900   0.13978 122.72453  2      152
siesta:      0.40557   2.60678 122.72453  2      153
siesta:     -0.59030  -0.53175 120.29434  1      154
siesta:     -2.63900  -0.13978 120.29434  2      155
siesta:     -0.40557  -2.60678 120.29434  2      156
siesta:      0.59030   0.53175 127.58491  1      157
siesta:      2.63900   0.13978 127.58491  2      158
siesta:      0.40557   2.60678 127.58491  2      159
siesta:     -0.59030  -0.53175 125.15472  1      160
siesta:     -2.63900  -0.13978 125.15472  2      161
siesta:     -0.40557  -2.60678 125.15472  2      162
siesta:      0.59030   0.53175 132.44529  1      163
siesta:      2.63900   0.13978 132.44529  2      164
siesta:      0.40557   2.60678 132.44529  2      165
siesta:     -0.59030  -0.53175 130.01510  1      166
siesta:     -2.63900  -0.13978 130.01510  2      167
siesta:     -0.40557  -2.60678 130.01510  2      168
siesta:      0.59030   0.53175 137.30567  1      169
siesta:      2.63900   0.13978 137.30567  2      170
siesta:      0.40557   2.60678 137.30567  2      171
siesta:     -0.59030  -0.53175 134.87548  1      172
siesta:     -2.63900  -0.13978 134.87548  2      173
siesta:     -0.40557  -2.60678 134.87548  2      174
siesta:      0.59030   0.53175 142.16604  1      175
siesta:      2.63900   0.13978 142.16604  2      176
siesta:      0.40557   2.60678 142.16604  2      177
siesta:     -0.59030  -0.53175 139.73585  1      178
siesta:     -2.63900  -0.13978 139.73585  2      179
siesta:     -0.40557  -2.60678 139.73585  2      180
siesta:      0.59030   0.53175 147.02642  1      181
siesta:      2.63900   0.13978 147.02642  2      182
siesta:      0.40557   2.60678 147.02642  2      183
siesta:     -0.59030  -0.53175 144.59623  1      184
siesta:     -2.63900  -0.13978 144.59623  2      185
siesta:     -0.40557  -2.60678 144.59623  2      186
siesta:      0.59030   0.53175 151.88680  1      187
siesta:      2.63900   0.13978 151.88680  2      188
siesta:      0.40557   2.60678 151.88680  2      189
siesta:     -0.59030  -0.53175 149.45661  1      190
siesta:     -2.63900  -0.13978 149.45661  2      191
siesta:     -0.40557  -2.60678 149.45661  2      192
siesta:      0.59030   0.53175 156.74718  1      193
siesta:      2.63900   0.13978 156.74718  2      194
siesta:      0.40557   2.60678 156.74718  2      195
siesta:     -0.59030  -0.53175 154.31699  1      196
siesta:     -2.63900  -0.13978 154.31699  2      197
siesta:     -0.40557  -2.60678 154.31699  2      198
siesta:      0.59030   0.53175 161.60755  1      199
siesta:      2.63900   0.13978 161.60755  2      200
siesta:      0.40557   2.60678 161.60755  2      201
siesta:     -0.59030  -0.53175 159.17736  1      202
siesta:     -2.63900  -0.13978 159.17736  2      203
siesta:     -0.40557  -2.60678 159.17736  2      204
siesta:      0.59030   0.53175 166.46793  1      205
siesta:      2.63900   0.13978 166.46793  2      206
siesta:      0.40557   2.60678 166.46793  2      207
siesta:     -0.59030  -0.53175 164.03774  1      208
siesta:     -2.63900  -0.13978 164.03774  2      209
siesta:     -0.40557  -2.60678 164.03774  2      210
siesta:      0.59030   0.53175 171.32831  1      211
siesta:      2.63900   0.13978 171.32831  2      212
siesta:      0.40557   2.60678 171.32831  2      213
siesta:     -0.59030  -0.53175 168.89812  1      214
siesta:     -2.63900  -0.13978 168.89812  2      215
siesta:     -0.40557  -2.60678 168.89812  2      216
siesta:      0.59030   0.53175 176.18869  1      217
siesta:      2.63900   0.13978 176.18869  2      218
siesta:      0.40557   2.60678 176.18869  2      219
siesta:     -0.59030  -0.53175 173.75850  1      220
siesta:     -2.63900  -0.13978 173.75850  2      221
siesta:     -0.40557  -2.60678 173.75850  2      222
siesta:      0.59030   0.53175 181.04906  1      223
siesta:      2.63900   0.13978 181.04906  2      224
siesta:      0.40557   2.60678 181.04906  2      225
siesta:     -0.59030  -0.53175 178.61887  1      226
siesta:     -2.63900  -0.13978 178.61887  2      227
siesta:     -0.40557  -2.60678 178.61887  2      228
siesta:      0.59030   0.53175 185.90944  1      229
siesta:      2.63900   0.13978 185.90944  2      230
siesta:      0.40557   2.60678 185.90944  2      231
siesta:     -0.59030  -0.53175 183.47925  1      232
siesta:     -2.63900  -0.13978 183.47925  2      233
siesta:     -0.40557  -2.60678 183.47925  2      234
siesta:      0.59030   0.53175 190.76982  1      235
siesta:      2.63900   0.13978 190.76982  2      236
siesta:      0.40557   2.60678 190.76982  2      237
siesta:     -0.59030  -0.53175 188.33963  1      238
siesta:     -2.63900  -0.13978 188.33963  2      239
siesta:     -0.40557  -2.60678 188.33963  2      240
siesta:      0.59030   0.53175 195.63020  1      241
siesta:      2.63900   0.13978 195.63020  2      242
siesta:      0.40557   2.60678 195.63020  2      243
siesta:     -0.59030  -0.53175 193.20001  1      244
siesta:     -2.63900  -0.13978 193.20001  2      245
siesta:     -0.40557  -2.60678 193.20001  2      246
siesta:      0.59030   0.53175 200.49057  1      247
siesta:      2.63900   0.13978 200.49057  2      248
siesta:      0.40557   2.60678 200.49057  2      249
siesta:     -0.59030  -0.53175 198.06038  1      250
siesta:     -2.63900  -0.13978 198.06038  2      251
siesta:     -0.40557  -2.60678 198.06038  2      252
siesta:      0.59030   0.53175 205.35095  1      253
siesta:      2.63900   0.13978 205.35095  2      254
siesta:      0.40557   2.60678 205.35095  2      255
siesta:     -0.59030  -0.53175 202.92076  1      256
siesta:     -2.63900  -0.13978 202.92076  2      257
siesta:     -0.40557  -2.60678 202.92076  2      258
siesta:      0.59030   0.53175 210.21133  1      259
siesta:      2.63900   0.13978 210.21133  2      260
siesta:      0.40557   2.60678 210.21133  2      261
siesta:     -0.59030  -0.53175 207.78114  1      262
siesta:     -2.63900  -0.13978 207.78114  2      263
siesta:     -0.40557  -2.60678 207.78114  2      264
siesta:      0.59030   0.53175 215.07171  1      265
siesta:      2.63900   0.13978 215.07171  2      266
siesta:      0.40557   2.60678 215.07171  2      267
siesta:     -0.59030  -0.53175 212.64152  1      268
siesta:     -2.63900  -0.13978 212.64152  2      269
siesta:     -0.40557  -2.60678 212.64152  2      270
siesta:      0.59030   0.53175 219.93208  1      271
siesta:      2.63900   0.13978 219.93208  2      272
siesta:      0.40557   2.60678 219.93208  2      273
siesta:     -0.59030  -0.53175 217.50189  1      274
siesta:     -2.63900  -0.13978 217.50189  2      275
siesta:     -0.40557  -2.60678 217.50189  2      276
siesta:      0.59030   0.53175 224.79246  1      277
siesta:      2.63900   0.13978 224.79246  2      278
siesta:      0.40557   2.60678 224.79246  2      279
siesta:     -0.59030  -0.53175 222.36227  1      280
siesta:     -2.63900  -0.13978 222.36227  2      281
siesta:     -0.40557  -2.60678 222.36227  2      282
siesta:      0.59030   0.53175 229.65284  1      283
siesta:      2.63900   0.13978 229.65284  2      284
siesta:      0.40557   2.60678 229.65284  2      285
siesta:     -0.59030  -0.53175 227.22265  1      286
siesta:     -2.63900  -0.13978 227.22265  2      287
siesta:     -0.40557  -2.60678 227.22265  2      288
siesta:      0.59030   0.53175 234.51322  1      289
siesta:      2.63900   0.13978 234.51322  2      290
siesta:      0.40557   2.60678 234.51322  2      291
siesta:     -0.59030  -0.53175 232.08303  1      292
siesta:     -2.63900  -0.13978 232.08303  2      293
siesta:     -0.40557  -2.60678 232.08303  2      294
siesta:      0.59030   0.53175 239.37359  1      295
siesta:      2.63900   0.13978 239.37359  2      296
siesta:      0.40557   2.60678 239.37359  2      297
siesta:     -0.59030  -0.53175 236.94340  1      298
siesta:     -2.63900  -0.13978 236.94340  2      299
siesta:     -0.40557  -2.60678 236.94340  2      300
siesta:      0.59030   0.53175 244.23397  1      301
siesta:      2.63900   0.13978 244.23397  2      302
siesta:      0.40557   2.60678 244.23397  2      303
siesta:     -0.59030  -0.53175 241.80378  1      304
siesta:     -2.63900  -0.13978 241.80378  2      305
siesta:     -0.40557  -2.60678 241.80378  2      306
siesta:      0.59030   0.53175 249.09435  1      307
siesta:      2.63900   0.13978 249.09435  2      308
siesta:      0.40557   2.60678 249.09435  2      309
siesta:     -0.59030  -0.53175 246.66416  1      310
siesta:     -2.63900  -0.13978 246.66416  2      311
siesta:     -0.40557  -2.60678 246.66416  2      312
siesta:      0.59030   0.53175 253.95473  1      313
siesta:      2.63900   0.13978 253.95473  2      314
siesta:      0.40557   2.60678 253.95473  2      315
siesta:     -0.59030  -0.53175 251.52454  1      316
siesta:     -2.63900  -0.13978 251.52454  2      317
siesta:     -0.40557  -2.60678 251.52454  2      318
siesta:      0.59030   0.53175 258.81510  1      319
siesta:      2.63900   0.13978 258.81510  2      320
siesta:      0.40557   2.60678 258.81510  2      321
siesta:     -0.59030  -0.53175 256.38491  1      322
siesta:     -2.63900  -0.13978 256.38491  2      323
siesta:     -0.40557  -2.60678 256.38491  2      324
siesta:      0.59030   0.53175 263.67548  1      325
siesta:      2.63900   0.13978 263.67548  2      326
siesta:      0.40557   2.60678 263.67548  2      327
siesta:     -0.59030  -0.53175 261.24529  1      328
siesta:     -2.63900  -0.13978 261.24529  2      329
siesta:     -0.40557  -2.60678 261.24529  2      330
siesta:      0.59030   0.53175 268.53586  1      331
siesta:      2.63900   0.13978 268.53586  2      332
siesta:      0.40557   2.60678 268.53586  2      333
siesta:     -0.59030  -0.53175 266.10567  1      334
siesta:     -2.63900  -0.13978 266.10567  2      335
siesta:     -0.40557  -2.60678 266.10567  2      336
siesta:      0.59030   0.53175 273.39624  1      337
siesta:      2.63900   0.13978 273.39624  2      338
siesta:      0.40557   2.60678 273.39624  2      339
siesta:     -0.59030  -0.53175 270.96605  1      340
siesta:     -2.63900  -0.13978 270.96605  2      341
siesta:     -0.40557  -2.60678 270.96605  2      342
siesta:      0.59030   0.53175 278.25661  1      343
siesta:      2.63900   0.13978 278.25661  2      344
siesta:      0.40557   2.60678 278.25661  2      345
siesta:     -0.59030  -0.53175 275.82642  1      346
siesta:     -2.63900  -0.13978 275.82642  2      347
siesta:     -0.40557  -2.60678 275.82642  2      348
siesta:      0.59030   0.53175 283.11699  1      349
siesta:      2.63900   0.13978 283.11699  2      350
siesta:      0.40557   2.60678 283.11699  2      351
siesta:     -0.59030  -0.53175 280.68680  1      352
siesta:     -2.63900  -0.13978 280.68680  2      353
siesta:     -0.40557  -2.60678 280.68680  2      354
siesta:      0.59030   0.53175 287.97737  1      355
siesta:      2.63900   0.13978 287.97737  2      356
siesta:      0.40557   2.60678 287.97737  2      357
siesta:     -0.59030  -0.53175 285.54718  1      358
siesta:     -2.63900  -0.13978 285.54718  2      359
siesta:     -0.40557  -2.60678 285.54718  2      360
siesta:      0.59030   0.53175 292.83775  1      361
siesta:      2.63900   0.13978 292.83775  2      362
siesta:      0.40557   2.60678 292.83775  2      363
siesta:     -0.59030  -0.53175 290.40756  1      364
siesta:     -2.63900  -0.13978 290.40756  2      365
siesta:     -0.40557  -2.60678 290.40756  2      366
siesta:      0.59030   0.53175 297.69812  1      367
siesta:      2.63900   0.13978 297.69812  2      368
siesta:      0.40557   2.60678 297.69812  2      369
siesta:     -0.59030  -0.53175 295.26793  1      370
siesta:     -2.63900  -0.13978 295.26793  2      371
siesta:     -0.40557  -2.60678 295.26793  2      372
siesta:      0.59030   0.53175 302.55850  1      373
siesta:      2.63900   0.13978 302.55850  2      374
siesta:      0.40557   2.60678 302.55850  2      375
siesta:     -0.59030  -0.53175 300.12831  1      376
siesta:     -2.63900  -0.13978 300.12831  2      377
siesta:     -0.40557  -2.60678 300.12831  2      378
siesta:      0.59030   0.53175 307.41888  1      379
siesta:      2.63900   0.13978 307.41888  2      380
siesta:      0.40557   2.60678 307.41888  2      381
siesta:     -0.59030  -0.53175 304.98869  1      382
siesta:     -2.63900  -0.13978 304.98869  2      383
siesta:     -0.40557  -2.60678 304.98869  2      384

siesta: System type = chain     

initatomlists: Number of atoms, orbitals, and projectors:    384  2944  4352

siesta: ******************** Simulation parameters ****************************
siesta:
siesta: The following are some of the parameters of the simulation.
siesta: A complete list of the parameters used, including default values,
siesta: can be found in file out.fdf
siesta:
redata: Non-Collinear-spin run           =     F
redata: SpinPolarized (Up/Down) run      =     F
redata: Number of spin components        =     1
redata: Long output                      =     F
redata: Number of Atomic Species         =        2
redata: Charge density info will appear in .RHO file
redata: Write Mulliken Pop.              =     NO
redata: Mesh Cutoff                      =   100.0000  Ry
redata: Net charge of the system         =     0.0000 |e|
redata: Min. number of SCF Iter          =        0
redata: Max. number of SCF Iter          =       50
redata: Mix DM or H after convergence    =     F
redata: Recompute H after scf cycle      =     F
redata: Performing Pulay mixing using    =     3 iterations
redata: Mix DM in first SCF step ?       =     F
redata: Write Pulay info on disk?        =     F
redata: Discard 1st Pulay DM after  kick =     F
redata: New DM Mixing Weight             =     0.3000
redata: New DM Occupancy tolerance       = 0.000000000001
redata: No kicks to SCF
redata: DM Mixing Weight for Kicks       =     0.5000
redata: DM Tolerance for SCF             =     0.000100
redata: Require (free) Energy convergence in SCF =     F
redata: DM (free)Energy tolerance for SCF =     0.000010 eV
redata: Require Harris convergence for SCF =     F
redata: DM Harris energy tolerance for SCF =     0.000010 eV
redata: Using Saved Data (generic)   =     F
redata: Use continuation files for DM    =     F
redata: Neglect nonoverlap interactions  =     F
redata: Method of Calculation            =     QETSc
redata: Fix the spin of the system       =     F
redata: Dynamics option                  =     Single-point calculation
redata: ***********************************************************************
Total number of electrons:   768.000000
Total ionic charge:   768.000000

* ProcessorY, Blocksize:    8  46


* Orbital distribution balance (max,min):    46    46

 Kpoints in:  1 . Kpoints trimmed:  1

siesta: k-grid: Number of k-points =     1
siesta: k-grid: Cutoff (effective) =    10.000 Ang
siesta: k-grid: Supercell and displacements
siesta: k-grid:    1   0   0      0.000
siesta: k-grid:    0   1   0      0.000
siesta: k-grid:    0   0   1      0.000

                     ====================================
                        Single-point calculation
                     ====================================

outcell: Unit cell vectors (Ang):
       20.000000    0.000000    0.000000
        0.000000   20.000000    0.000000
        0.000000    0.000000  164.608000

outcell: Cell vector modules (Ang)   :   20.000000   20.000000  164.608000
outcell: Cell angles (23,13,12) (deg):     90.0000     90.0000     90.0000
outcell: Cell volume (Ang**3)        :  65843.2000
New_DM. Step:     1
Initializing Density Matrix...
New grid distribution:   1
           1       1:   64    1:    8    1:   63
           2       1:   64    1:    8   64:  126
           3       1:   64    1:    8  127:  189
           4       1:   64    1:    8  190:  252
           5       1:   64    1:    8  253:  314
           6       1:   64    1:    8  315:  376
           7       1:   64    1:    8  377:  438
           8       1:   64    1:    8  439:  500
           9       1:   64    9:   16    1:   63
          10       1:   64    9:   16   64:  126
          11       1:   64    9:   16  127:  189
          12       1:   64    9:   16  190:  252
          13       1:   64    9:   16  253:  314
          14       1:   64    9:   16  315:  376
          15       1:   64    9:   16  377:  438
          16       1:   64    9:   16  439:  500
          17       1:   64   17:   24    1:   63
          18       1:   64   17:   24   64:  126
          19       1:   64   17:   24  127:  189
          20       1:   64   17:   24  190:  252
          21       1:   64   17:   24  253:  314
          22       1:   64   17:   24  315:  376
          23       1:   64   17:   24  377:  438
          24       1:   64   17:   24  439:  500
          25       1:   64   25:   32    1:   63
          26       1:   64   25:   32   64:  126
          27       1:   64   25:   32  127:  189
          28       1:   64   25:   32  190:  252
          29       1:   64   25:   32  253:  314
          30       1:   64   25:   32  315:  376
          31       1:   64   25:   32  377:  438
          32       1:   64   25:   32  439:  500
          33       1:   64   33:   40    1:   63
          34       1:   64   33:   40   64:  126
          35       1:   64   33:   40  127:  189
          36       1:   64   33:   40  190:  252
          37       1:   64   33:   40  253:  314
          38       1:   64   33:   40  315:  376
          39       1:   64   33:   40  377:  438
          40       1:   64   33:   40  439:  500
          41       1:   64   41:   48    1:   63
          42       1:   64   41:   48   64:  126
          43       1:   64   41:   48  127:  189
          44       1:   64   41:   48  190:  252
          45       1:   64   41:   48  253:  314
          46       1:   64   41:   48  315:  376
          47       1:   64   41:   48  377:  438
          48       1:   64   41:   48  439:  500
          49       1:   64   49:   56    1:   63
          50       1:   64   49:   56   64:  126
          51       1:   64   49:   56  127:  189
          52       1:   64   49:   56  190:  252
          53       1:   64   49:   56  253:  314
          54       1:   64   49:   56  315:  376
          55       1:   64   49:   56  377:  438
          56       1:   64   49:   56  439:  500
          57       1:   64   57:   64    1:   63
          58       1:   64   57:   64   64:  126
          59       1:   64   57:   64  127:  189
          60       1:   64   57:   64  190:  252
          61       1:   64   57:   64  253:  314
          62       1:   64   57:   64  315:  376
          63       1:   64   57:   64  377:  438
          64       1:   64   57:   64  439:  500

InitMesh: MESH =   128 x   128 x  1000 =    16384000
InitMesh: (bp) =    64 x    64 x   500 =     2048000
InitMesh: Mesh cutoff (required, used) =   100.000   102.000 Ry
ExtMesh (bp) on 0 =   100 x    44 x    95 =      418000
New grid distribution:   2
           1       8:   64    8:   64    1:   31
           2       8:   64    1:    7    1:   32
           3       8:   64    1:    7  158:  188
           4       1:    7    1:    7  376:  407
           5       1:    7    1:    7  251:  282
           6       8:   64    1:    7  314:  344
           7       8:   64    1:    7  376:  407
           8       8:   64    8:   64  470:  500
           9       1:    7    8:   64   32:   63
          10       8:   64    1:    7  439:  469
          11       8:   64    8:   64  157:  188
          12       1:    7    1:    7  126:  157
          13       8:   64    8:   64  282:  313
          14       8:   64    1:    7   64:   94
          15       1:    7    8:   64  407:  438
          16       1:    7    1:    7    1:   32
          17       8:   64    8:   64   32:   63
          18       1:    7    8:   64   64:   94
          19       1:    7    8:   64  157:  188
          20       1:    7    1:    7  158:  188
          21       1:    7    8:   64  282:  313
          22       8:   64    1:    7  470:  500
          23       8:   64    8:   64  407:  438
          24       1:    7    1:    7  470:  500
          25       8:   64    1:    7  126:  157
          26       8:   64    8:   64   95:  125
          27       1:    7    8:   64  126:  156
          28       1:    7    1:    7   95:  125
          29       8:   64    1:    7  251:  282
          30       8:   64    8:   64  314:  344
          31       8:   64    1:    7   95:  125
          32       1:    7    1:    7   64:   94
          33       8:   64    1:    7  283:  313
          34       8:   64    8:   64   64:   94
          35       1:    7    1:    7   33:   63
          36       1:    7    8:   64  189:  219
          37       8:   64    8:   64  251:  281
          38       8:   64    1:    7  220:  250
          39       1:    7    8:   64  376:  406
          40       1:    7    1:    7  314:  344
          41       8:   64    1:    7  345:  375
          42       1:    7    8:   64   95:  125
          43       8:   64    8:   64  126:  156
          44       1:    7    1:    7  283:  313
          45       1:    7    8:   64  251:  281
          46       8:   64    8:   64  345:  375
          47       1:    7    8:   64    1:   31
          48       1:    7    1:    7  408:  438
          49       8:   64    1:    7  408:  438
          50       1:    7    8:   64  220:  250
          51       1:    7    1:    7  345:  375
          52       8:   64    8:   64  189:  219
          53       1:    7    1:    7  189:  219
          54       1:    7    8:   64  314:  344
          55       8:   64    8:   64  376:  406
          56       1:    7    8:   64  470:  500
          57       8:   64    1:    7   33:   63
          58       1:    7    8:   64  439:  469
          59       1:    7    1:    7  439:  469
          60       8:   64    8:   64  220:  250
          61       8:   64    1:    7  189:  219
          62       1:    7    8:   64  345:  375
          63       1:    7    1:    7  220:  250
          64       8:   64    8:   64  439:  469
New grid distribution:   3
           1       1:   36   13:   64  220:  250
           2      39:   64   13:   64  376:  406
           3       1:   11    1:   12   94:  125
           4      12:   64    1:   12  219:  250
           5       1:   36   13:   64  345:  375
           6      39:   64   13:   64  126:  156
           7      12:   64    1:   12   94:  125
           8       1:   11    1:   12  469:  500
           9      12:   64    1:   12  469:  500
          10       1:   36   13:   64   95:  125
          11      39:   64   13:   64  157:  187
          12       1:   11    1:   12  219:  250
          13      39:   64   13:   64  251:  281
          14      12:   64    1:   12  344:  375
          15       1:   11    1:   12  344:  375
          16       1:   36   13:   64  470:  500
          17       1:   38   13:   64   32:   62
          18      12:   64    1:   12   32:   62
          19       1:   11    1:   12  438:  468
          20      37:   64   13:   64  188:  219
          21       1:   38   13:   64  282:  312
          22      12:   64    1:   12  126:  156
          23       1:   11    1:   12  157:  187
          24      37:   64   13:   64  438:  469
          25      12:   64    1:   12  313:  343
          26      37:   64   13:   64   63:   94
          27       1:   38   13:   64  157:  187
          28       1:   11    1:   12  126:  156
          29       1:   38   13:   64  251:  281
          30      37:   64   13:   64  313:  344
          31      12:   64    1:   12  438:  468
          32       1:   11    1:   12  188:  218
          33      12:   64    1:   12  376:  406
          34       1:   11    1:   12   32:   62
          35       1:   38   13:   64  126:  156
          36      37:   64   13:   64  220:  250
          37      12:   64    1:   12  407:  437
          38      37:   64   13:   64  345:  375
          39       1:   38   13:   64  407:  437
          40       1:   11    1:   12    1:   31
          41       1:   38   13:   64    1:   31
          42      37:   64   13:   64   95:  125
          43      12:   64    1:   12    1:   31
          44       1:   11    1:   12   63:   93
          45      12:   64    1:   12  157:  187
          46       1:   11    1:   12  376:  406
          47       1:   38   13:   64  376:  406
          48      37:   64   13:   64  470:  500
          49      39:   64   13:   64    1:   31
          50       1:   36   13:   64   63:   94
          51      12:   64    1:   12   63:   93
          52       1:   11    1:   12  313:  343
          53      39:   64   13:   64  282:  312
          54      12:   64    1:   12  188:  218
          55       1:   11    1:   12  407:  437
          56       1:   36   13:   64  438:  469
          57      39:   64   13:   64   32:   62
          58      12:   64    1:   12  282:  312
          59       1:   11    1:   12  251:  281
          60       1:   36   13:   64  188:  219
          61      12:   64    1:   12  251:  281
          62       1:   36   13:   64  313:  344
          63      39:   64   13:   64  407:  437
          64       1:   11    1:   12  282:  312
Setting up quadratic distribution...
ExtMesh (bp) on 0 =    93 x    93 x    63 =      544887
PhiOnMesh: Number of (b)points on node 0 =               100719
PhiOnMesh: nlist on node 0 =               110695
QETSC: Last update           = Dec 15, 2016
QETSC: Number of ranks       =          64
QETSC: Number of slices      =          64
QETSC: Number of ranks/slice =           1
QETSC: Number of evals/slice =   6.00
QETSC: Number of req. evals  =         384
QETSC: Number of rows (all)  =        2944
QETSC: Number of rows (max)  =          46
QETSC: Number of rows (min)  =          46
QETSC: Density option        =           0
QETSC: Bin type given        =           7
QETSC: Inertia type          =           1
QETSC: Infinity type         =           2
QETSC: Write option          =           1
QETSC: Bin buffer given      =   0.10
QETSC: Diff thresh           =   0.02
QETSC: Number of nonzeros    =      609408
QETSC: Nonzero % (all)       =   7.03
QETSC: Nonzero % (max)       =   7.03
QETSC: Nonzero % (min)       =   7.03
 QETSC: Shifts, inertias         =
      -INF     0
    -2.300     0
    -2.263     0
    -2.227     0
    -2.190     0
    -2.154     0
    -2.117     0
    -2.081     0
    -2.044     0
    -2.008     0
    -1.971     0
    -1.935     0
    -1.898     0
    -1.862     0
    -1.825     0
    -1.789     0
    -1.752     0
    -1.716     0
    -1.679     0
    -1.643    23
    -1.606    31
    -1.570    39
    -1.533    45
    -1.497    51
    -1.460    57
    -1.424    61
    -1.387    65
    -1.351    71
    -1.314    75
    -1.278    81
    -1.241   100
    -1.205   128
    -1.168   128
    -1.132   128
    -1.095   128
    -1.059   141
    -1.022   155
    -0.986   171
    -0.949   199
    -0.913   219
    -0.876   237
    -0.840   255
    -0.803   279
    -0.767   311
    -0.730   379
    -0.694   384
    -0.657   384
    -0.621   384
    -0.584   384
    -0.548   384
    -0.511   384
    -0.475   384
    -0.438   384
    -0.402   384
    -0.365   384
    -0.329   384
    -0.292   384
    -0.256   384
    -0.219   384
    -0.183   384
    -0.146   384
    -0.110   384
    -0.073   384
    -0.037   384
     0.000   384
 QETSc: Custers,iter,crange,npcmax,trial 1 0.125467346938775530E-01 12 6
-1.6682539682539681E+00
-1.6555555555555554E+00
-1.6428571428571428E+00
-1.6291666666666667E+00
-1.6154761904761903E+00
-1.6017857142857141E+00
-1.5880952380952380E+00
-1.5744047619047619E+00
-1.5576719576719575E+00
-1.5394179894179894E+00
-1.5211640211640212E+00
-1.5029100529100530E+00
-1.4846560846560846E+00
-1.4664021164021164E+00
-1.4511904761904761E+00
-1.4329365079365077E+00
-1.4146825396825395E+00
-1.3964285714285714E+00
-1.3751322751322750E+00
-1.3568783068783068E+00
-1.3416666666666666E+00
-1.3234126984126984E+00
-1.3021164021164020E+00
-1.2838624338624338E+00
-1.2662489557226400E+00
-1.2527986633249790E+00
-1.2386621315192743E+00
-1.2256235827664399E+00
-1.2125850340136055E+00
-1.2060657596371882E+00
-1.0840048840048839E+00
-1.0699633699633699E+00
-1.0561224489795920E+00
-1.0430839002267573E+00
-1.0300453514739227E+00
-1.0153769841269842E+00
-1.0016865079365078E+00
-9.8799603174603179E-01
-9.7397959183673466E-01
-9.6094104308390027E-01
-9.4738095238095232E-01
-9.3460317460317455E-01
-9.2182539682539677E-01
-9.0864197530864199E-01
-8.9444444444444438E-01
-8.8024691358024687E-01
-8.6604938271604937E-01
-8.5185185185185186E-01
-8.3816137566137572E-01
-8.2447089947089947E-01
-8.1078042328042332E-01
-7.9747023809523809E-01
-7.8492063492063502E-01
-7.7237103174603183E-01
-7.6290849673202621E-01
-7.5646591970121391E-01
-7.5002334267040160E-01
-7.4358076563958919E-01
-7.3713818860877689E-01
-7.3069561157796459E-01
-7.2285714285714286E-01
-7.0825396825396825E-01
-6.9365079365079363E-01
 QETSC: Bins             =
                   -INF
-1.6793650793650792E+00
-1.6657142857142855E+00
-1.6530158730158728E+00
-1.6401190476190475E+00
-1.6264285714285713E+00
-1.6127380952380950E+00
-1.5990476190476188E+00
-1.5853571428571427E+00
-1.5710582010582010E+00
-1.5540211640211639E+00
-1.5357671957671957E+00
-1.5175132275132275E+00
-1.4992592592592593E+00
-1.4810052910052909E+00
-1.4633597883597884E+00
-1.4475396825396825E+00
-1.4292857142857140E+00
-1.4110317460317459E+00
-1.3921693121693122E+00
-1.3714814814814813E+00
-1.3538359788359788E+00
-1.3380158730158729E+00
-1.3191534391534392E+00
-1.2984656084656083E+00
-1.2803397382344750E+00
-1.2635588972431078E+00
-1.2499713569638380E+00
-1.2360544217687075E+00
-1.2230158730158731E+00
-1.2112811791383220E+00
-1.1816535845107274E+00
-1.0811965811965811E+00
-1.0671951857666144E+00
-1.0535147392290249E+00
-1.0404761904761903E+00
-1.0271116780045351E+00
-1.0126388888888889E+00
-9.9894841269841261E-01
-9.8519274376417232E-01
-9.7137188208616776E-01
-9.5822902494331064E-01
-9.4482539682539679E-01
-9.3204761904761901E-01
-9.1918871252204581E-01
-9.0580246913580242E-01
-8.9160493827160492E-01
-8.7740740740740741E-01
-8.6320987654320991E-01
-8.4911375661375665E-01
-8.3542328042328051E-01
-8.2173280423280426E-01
-8.0811838624338628E-01
-7.9496031746031748E-01
-7.8241071428571440E-01
-7.7047852474323075E-01
-7.6161998132586373E-01
-7.5517740429505142E-01
-7.4873482726423912E-01
-7.4229225023342671E-01
-7.3584967320261441E-01
-7.2912791783380027E-01
-7.1993650793650799E-01
-7.0533333333333337E-01
-6.9365079365079363E-01
QETSC: Started iter            1
QETSC: Bin type used         =           7
QETSC: Buffer used           =   0.0000000000000000E+00
QETSC: EPS interval          =      -INF,    -0.694
QETSC: Inertia type          =           1
SLEPc: EPSSolve time = 30 2.325e-06
SLEPc: EPSSolve time = 62 1.854e-06
SLEPc: EPSSolve time = 0 1.800e-06
SLEPc: EPSSolve time = 29 2.233e-06
SLEPc: EPSSolve time = 63 1.706e-06
SLEPc: EPSSolve time = 31 1.904e-06
SLEPc: EPSSolve time = 18 2.377e+00
SLEPc: EPSSolve time = 13 2.388e+00
SLEPc: EPSSolve time = 8 2.394e+00
SLEPc: EPSSolve time = 23 2.402e+00
SLEPc: EPSSolve time = 20 2.407e+00
SLEPc: EPSSolve time = 24 2.409e+00
SLEPc: EPSSolve time = 21 2.412e+00
SLEPc: EPSSolve time = 19 2.423e+00
SLEPc: EPSSolve time = 17 2.433e+00
SLEPc: EPSSolve time = 14 2.436e+00
SLEPc: EPSSolve time = 9 2.442e+00
SLEPc: EPSSolve time = 6 2.444e+00
SLEPc: EPSSolve time = 15 2.448e+00
SLEPc: EPSSolve time = 11 2.453e+00
SLEPc: EPSSolve time = 25 2.457e+00
SLEPc: EPSSolve time = 26 2.474e+00
SLEPc: EPSSolve time = 7 2.474e+00
SLEPc: EPSSolve time = 16 2.477e+00
SLEPc: EPSSolve time = 10 2.478e+00
SLEPc: EPSSolve time = 35 2.483e+00
SLEPc: EPSSolve time = 37 2.484e+00
SLEPc: EPSSolve time = 57 2.484e+00
SLEPc: EPSSolve time = 5 2.488e+00
SLEPc: EPSSolve time = 48 2.493e+00
SLEPc: EPSSolve time = 36 2.510e+00
SLEPc: EPSSolve time = 50 2.515e+00
SLEPc: EPSSolve time = 4 2.522e+00
SLEPc: EPSSolve time = 12 2.524e+00
SLEPc: EPSSolve time = 3 2.531e+00
SLEPc: EPSSolve time = 22 2.535e+00
SLEPc: EPSSolve time = 34 2.537e+00
SLEPc: EPSSolve time = 2 2.539e+00
SLEPc: EPSSolve time = 60 2.540e+00
SLEPc: EPSSolve time = 44 2.545e+00
SLEPc: EPSSolve time = 42 2.546e+00
SLEPc: EPSSolve time = 41 2.549e+00
SLEPc: EPSSolve time = 43 2.552e+00
SLEPc: EPSSolve time = 49 2.556e+00
SLEPc: EPSSolve time = 46 2.582e+00
SLEPc: EPSSolve time = 32 2.583e+00
SLEPc: EPSSolve time = 53 2.602e+00
SLEPc: EPSSolve time = 45 2.605e+00
SLEPc: EPSSolve time = 52 2.608e+00
SLEPc: EPSSolve time = 47 2.616e+00
SLEPc: EPSSolve time = 61 2.619e+00
SLEPc: EPSSolve time = 38 2.624e+00
SLEPc: EPSSolve time = 33 2.649e+00
SLEPc: EPSSolve time = 51 2.649e+00
SLEPc: EPSSolve time = 39 2.656e+00
SLEPc: EPSSolve time = 40 2.670e+00
SLEPc: EPSSolve time = 58 2.686e+00
SLEPc: EPSSolve time = 1 2.777e+00
SLEPc: EPSSolve time = 56 2.882e+00
SLEPc: EPSSolve time = 27 2.884e+00
SLEPc: EPSSolve time = 28 2.932e+00
SLEPc: EPSSolve time = 55 3.401e+00
SLEPc: EPSSolve time = 54 3.523e+00
SLEPc: EPSSolve time = 59 4.184e+00
 QETSC: Eigenvalues         =
-1.6792898009683794E+00
-1.6789996922250237E+00
-1.6789996922250212E+00
-1.6781294751270786E+00
-1.6781294751270763E+00
-1.6766794797057354E+00
-1.6766794797057329E+00
-1.6746505299675298E+00
-1.6746499993000445E+00
-1.6720426298959861E+00
-1.6720426298959838E+00
-1.6688576336679242E+00
-1.6688576336679233E+00
-1.6650966130398837E+00
-1.6650966130398812E+00
-1.6607614371024080E+00
-1.6607609794869687E+00
-1.6558533903325976E+00
-1.6558533903325963E+00
-1.6503754914024333E+00
-1.6503754914024316E+00
-1.6443302401572806E+00
-1.6443302401572779E+00
-1.6377295940554955E+00
-1.6377119801211217E+00
-1.6305507782508757E+00
-1.6305507782508708E+00
-1.6228243859141687E+00
-1.6228243859141678E+00
-1.6145463468382308E+00
-1.6145463468382295E+00
-1.6057238485298087E+00
-1.6057202689753545E+00
-1.5963576464339879E+00
-1.5963576464339837E+00
-1.5864600543452143E+00
-1.5864600543452125E+00
-1.5760371562121043E+00
-1.5760371562120994E+00
-1.5650980815262419E+00
-1.5650976947079693E+00
-1.5536524078177170E+00
-1.5536524078177110E+00
-1.5417122890804165E+00
-1.5417122890804145E+00
-1.5292907595560856E+00
-1.5292907595560814E+00
-1.5164053129189898E+00
-1.5164006733068567E+00
-1.5030664732753714E+00
-1.5030664732753680E+00
-1.4893014430983453E+00
-1.4893014430983422E+00
-1.4751314672196461E+00
-1.4751314672196421E+00
-1.4605859526477947E+00
-1.4605823237561153E+00
-1.4456919638164312E+00
-1.4456919638164292E+00
-1.4304934842994317E+00
-1.4304934842994232E+00
-1.4150346797642086E+00
-1.4150346797642002E+00
-1.3993708446340902E+00
-1.3993706328007927E+00
-1.3835682609316886E+00
-1.3835682609316875E+00
-1.3677079616496588E+00
-1.3677079616496521E+00
-1.3518879007374947E+00
-1.3518879007374907E+00
-1.3362274355465495E+00
-1.3362268698821040E+00
-1.3208696050386521E+00
-1.3208696050386468E+00
-1.3059871485162728E+00
-1.3059871485162620E+00
-1.2917808422031034E+00
-1.2917808422031019E+00
-1.2784800720487814E+00
-1.2784754197942769E+00
-1.2663203998453305E+00
-1.2663203998453245E+00
-1.2555463253085506E+00
-1.2555463253085448E+00
-1.2470904146233504E+00
-1.2469283454191340E+00
-1.2469283454191313E+00
-1.2464447289491403E+00
-1.2464447289491372E+00
-1.2463579608698632E+00
-1.2463579608698583E+00
-1.2456472154882097E+00
-1.2456472154882057E+00
-1.2445511329937855E+00
-1.2445490155310346E+00
-1.2431719955249121E+00
-1.2431719955249063E+00
-1.2415397679311817E+00
-1.2415397679311762E+00
-1.2396878027010554E+00
-1.2396878027010509E+00
-1.2388873551662718E+00
-1.2388868415231371E+00
-1.2376603580876622E+00
-1.2376595314610437E+00
-1.2355113766498911E+00
-1.2355113766498833E+00
-1.2333110550986668E+00
-1.2333110550986590E+00
-1.2331706658876249E+00
-1.2331706658876218E+00
-1.2311447328227498E+00
-1.2311447328227427E+00
-1.2291398955564810E+00
-1.2291398955564772E+00
-1.2291355728970506E+00
-1.2291010883132214E+00
-1.2273622232059167E+00
-1.2273622232059105E+00
-1.2266368392047915E+00
-1.2266368392047857E+00
-1.2260345857478880E+00
-1.2260345857478803E+00
-1.2254460204095781E+00
-1.2254438109528072E+00
-1.2253232816404289E+00
-1.2253232816404196E+00
-1.0713228956673946E+00
-1.0710499858299642E+00
-1.0710499858299620E+00
-1.0702317714422209E+00
-1.0702317714422191E+00
-1.0688698019162621E+00
-1.0688698019162610E+00
-1.0669667197650878E+00
-1.0669666263856785E+00
-1.0645260473966442E+00
-1.0645260473966429E+00
-1.0615526824108210E+00
-1.0615526824108206E+00
-1.0580524673304941E+00
-1.0580524673304883E+00
-1.0540327137390761E+00
-1.0540322222397669E+00
-1.0495009803630615E+00
-1.0495009803630571E+00
-1.0444675933961478E+00
-1.0444675933961456E+00
-1.0389432685610558E+00
-1.0389432685610522E+00
-1.0329674555827517E+00
-1.0329131096867519E+00
-1.0264726340792487E+00
-1.0264726340792367E+00
-1.0195559391056317E+00
-1.0195559391056253E+00
-1.0122073346969096E+00
-1.0122073346969036E+00
-1.0044460043779446E+00
-1.0044458070891986E+00
-9.9629266224551161E-01
-9.9629266224550694E-01
-9.8777067184118839E-01
-9.8777067184118461E-01
-9.8740052528638333E-01
-9.8740052528637312E-01
-9.8643241425744999E-01
-9.8643241425744721E-01
-9.8637206098430363E-01
-9.8636866725050143E-01
-9.8357562706215307E-01
-9.8357562706213475E-01
-9.8327397795441929E-01
-9.8327397795440796E-01
-9.7926084190886920E-01
-9.7926084190885276E-01
-9.7890529484444810E-01
-9.7890529484443345E-01
-9.7781029778970019E-01
-9.7780937258140799E-01
-9.7366042164208388E-01
-9.7366042164207456E-01
-9.7002753701653177E-01
-9.7002753701651934E-01
-9.6972320410335922E-01
-9.6972268769345038E-01
-9.6698897826489116E-01
-9.6698654261686756E-01
-9.6025527154819557E-01
-9.6025527154819035E-01
-9.6003046783954393E-01
-9.6003046783953505E-01
-9.5943173734620624E-01
-9.5943173734619924E-01
-9.5115754962969246E-01
-9.5115754962967913E-01
-9.5053350911699264E-01
-9.5053350911698664E-01
-9.4801813545949021E-01
-9.4801813545947922E-01
-9.4230962176934863E-01
-9.4230962176933153E-01
-9.4059267006838021E-01
-9.4059267006837233E-01
-9.3426065352426968E-01
-9.3426041173873919E-01
-9.3301559336652506E-01
-9.3301458918303015E-01
-9.3047065682152830E-01
-9.3046975926727904E-01
-9.2338717302714091E-01
-9.2338717302713469E-01
-9.2020615535250083E-01
-9.2020615535249706E-01
-9.1906379254831205E-01
-9.1906379254830428E-01
-9.1352797951742370E-01
-9.1352797951741926E-01
-9.0984309357169213E-01
-9.0984309357168469E-01
-9.0353085306281711E-01
-9.0353085306280589E-01
-9.0274421172676556E-01
-9.0274421172675967E-01
-8.9942606175319617E-01
-8.9942606175318796E-01
-8.9348463382115939E-01
-8.9347944532050871E-01
-8.8900589749405334E-01
-8.8899887660551247E-01
-8.8561291607276460E-01
-8.8561291607276338E-01
-8.8346171752138536E-01
-8.8346171752137737E-01
-8.7862143536066262E-01
-8.7862143536065751E-01
-8.7354543096126658E-01
-8.7354543096125781E-01
-8.6833425672704689E-01
-8.6833425672704134E-01
-8.6804690445358768E-01
-8.6789137554837437E-01
-8.6380305140262792E-01
-8.6380305140262115E-01
-8.5819311968826695E-01
-8.5819311968826362E-01
-8.5430680711531704E-01
-8.5429329425999811E-01
-8.5010324537694926E-01
-8.5010324537693860E-01
-8.4825098361636808E-01
-8.4825087536717581E-01
-8.4509662912185668E-01
-8.4509662912185080E-01
-8.3856051981093349E-01
-8.3856051981092683E-01
-8.3624734800095857E-01
-8.3624734800095246E-01
-8.3229911840558046E-01
-8.3229911840556714E-01
-8.2917381577908034E-01
-8.2917381577907134E-01
-8.2780051029692148E-01
-8.2780051029692003E-01
-8.2014091292780578E-01
-8.2014091292779900E-01
-8.1979787362883083E-01
-8.1979723832529550E-01
-8.1483981700253694E-01
-8.1483981700252694E-01
-8.1227241803305961E-01
-8.1227241803304306E-01
-8.1151518046843407E-01
-8.1150285950138557E-01
-8.0525104093305566E-01
-8.0525104093304289E-01
-8.0332142504601822E-01
-8.0332142504601500E-01
-7.9875106300206200E-01
-7.9875106300205456E-01
-7.9801350807105698E-01
-7.9801321300489825E-01
-7.9561640395127808E-01
-7.9561640395127231E-01
-7.9278399810980671E-01
-7.9277948573018964E-01
-7.8842620048549417E-01
-7.8842620048548373E-01
-7.8734415773964506E-01
-7.8734415773964361E-01
-7.8243170068144263E-01
-7.8243170068143553E-01
-7.8211568233366768E-01
-7.8211568233366402E-01
-7.8177966912193930E-01
-7.8177261011080501E-01
-7.7803085705939212E-01
-7.7803085705938169E-01
-7.7568391594861563E-01
-7.7568391594861097E-01
-7.7416375497130696E-01
-7.7407952175655226E-01
-7.7068003486344738E-01
-7.7068003486343617E-01
-7.7015911279338034E-01
-7.7015911279337546E-01
-7.6767858036621517E-01
-7.6767858036620695E-01
-7.6745110280266804E-01
-7.6745110280266127E-01
-7.6520298288904387E-01
-7.6520298288904176E-01
-7.6508623200017134E-01
-7.6508623200016623E-01
-7.6287234945006288E-01
-7.6287197653911254E-01
-7.6100516989475930E-01
-7.6100516989475120E-01
-7.6080881789355725E-01
-7.6080831886212630E-01
-7.5945541382472281E-01
-7.5945541382471604E-01
-7.5819525951125000E-01
-7.5819525951124456E-01
-7.5720037474314983E-01
-7.5719955580743170E-01
-7.5696100996229876E-01
-7.5696100996229398E-01
-7.5644861223805249E-01
-7.5644861223804993E-01
-7.5592428903281994E-01
-7.5592428903281794E-01
-7.5561469461538888E-01
-7.5561469461538777E-01
-7.5551233467999679E-01
-7.5432972187097591E-01
-7.5432972187096847E-01
-7.5363839845206571E-01
-7.5363839845206149E-01
-7.5081232335703052E-01
-7.5081232335702697E-01
-7.4845001194273741E-01
-7.4844835303855373E-01
-7.4651122294940953E-01
-7.4651122294940830E-01
-7.4495779040358079E-01
-7.4495779040357812E-01
-7.4374691226461298E-01
-7.4374691226461020E-01
-7.4305858074300390E-01
-7.4305801850392694E-01
-7.4289389472808420E-01
-7.4276695911794155E-01
-7.4216931060170344E-01
-7.4216931060170177E-01
-7.4172819349613595E-01
-7.4172524935733553E-01
-7.4172524935733364E-01
-7.4171036453526684E-01
-7.4171036453526507E-01
-7.4165906361812317E-01
-7.4165906361812095E-01
-7.4158086979937887E-01
-7.4158086979937698E-01
-7.4148721195146550E-01
-7.4148615763349246E-01
-7.4145346341216423E-01
-7.4145346341216312E-01
-7.4139173159233240E-01
-7.4139173159233074E-01
-7.4131738596706209E-01
-7.4131661462699694E-01
-7.4131545045257985E-01
-7.4131545045257730E-01
-7.4128138157038370E-01
-7.4128138157038126E-01
-7.3392806673236799E-01
-7.3392806673236155E-01
-7.2719724255040663E-01
-7.2719724255040330E-01
-7.2307034828068517E-01
-7.2307034828068295E-01
-7.2167947510274211E-01
QETSC: Iter time (min)       =     1   7.36
QETSC: Iter time (max)       =     1   7.37
QETSC: Iter time (avg)       =     1   7.37
QETSC: Num. of conv. evals   =     1         384
QETSC: Eigenvalue (1)        =     1  -1.6792898009683794E+00
QETSC: Eigenvalue (nocc)     =     1  -7.2167947510274211E-01
QETSC: Max differrence       =     1   1.6792898009683794E+00
QETSC: Safe iteration        =     1      F
QETSC: Finished iter         =           1
 *****************************************************************
QETSC: SCF iter time=   7.500

siesta: Program's energy decomposition (eV):
siesta: Ebs     =    -10972.813260
siesta: Eions   =     37515.017267
siesta: Ena     =      8051.360606
siesta: Ekin    =     15139.467002
siesta: Enl     =     -1077.770530
siesta: DEna    =         0.000018
siesta: DUscf   =         0.000000
siesta: DUext   =         0.000000
siesta: Exc     =     -8032.963215
siesta: eta*DQ  =         0.000000
siesta: Emadel  =         0.000000
siesta: Emeta   =         0.000000
siesta: Emolmec =         0.000000
siesta: Ekinion =         0.000000
siesta: Eharris =    -23995.195586
siesta: Etot    =    -23434.923385
siesta: FreeEng =    -23434.923385
timer: Routine,Calls,Time,% =    IterSCF     1       9.700  35.81
 QETSC: Shifts, inertias         =
      -INF     0
    -2.300     0
    -2.263     0
    -2.227     0
    -2.190     0
    -2.154     0
    -2.117     0
    -2.081     0
    -2.044     0
    -2.008     0
    -1.971     0
    -1.935     0
    -1.898     0
    -1.862     0
    -1.825     0
    -1.789     0
    -1.752     0
    -1.716     0
    -1.679     0
    -1.643     0
    -1.606     0
    -1.570     0
    -1.533     0
    -1.497     0
    -1.460     0
    -1.424     0
    -1.387     0
    -1.351     0
    -1.314     0
    -1.278     0
    -1.241    21
    -1.205    31
    -1.168    37
    -1.132    45
    -1.095    49
    -1.059    55
    -1.022    59
    -0.986    65
    -0.949    69
    -0.913    73
    -0.876    80
    -0.840   124
    -0.803   128
    -0.767   128
    -0.730   128
    -0.694   149
    -0.657   159
    -0.621   167
    -0.584   181
    -0.548   207
    -0.511   225
    -0.475   243
    -0.438   265
    -0.402   338
    -0.365   367
    -0.329   371
    -0.292   375
    -0.256   384
    -0.219   384
    -0.183   384
    -0.146   384
    -0.110   384
    -0.073   384
    -0.037   384
     0.000   384
 QETSc: Custers,iter,crange,npcmax,trial 2 0.141694457142857184E-01 12 9
-1.2638699924414210E+00
-1.2482237339380196E+00
-1.2339682539682539E+00
-1.2193650793650794E+00
-1.2047619047619047E+00
-1.1865079365079365E+00
-1.1682539682539683E+00
-1.1499999999999999E+00
-1.1317460317460317E+00
-1.1134920634920635E+00
-1.0952380952380951E+00
-1.0769841269841269E+00
-1.0587301587301587E+00
-1.0404761904761903E+00
-1.0222222222222221E+00
-1.0039682539682540E+00
-9.8571428571428577E-01
-9.6746031746031746E-01
-9.4920634920634916E-01
-9.3095238095238098E-01
-9.1269841269841268E-01
-8.9705215419501128E-01
-8.8140589569160999E-01
-8.6706349206349209E-01
-8.5710678210678215E-01
-8.4715007215007221E-01
-8.3968253968253970E-01
-8.2142857142857140E-01
-8.1230158730158730E-01
-7.1625094482237339E-01
-7.0060468631897199E-01
-6.8634920634920638E-01
-6.7174603174603176E-01
-6.5714285714285714E-01
-6.3888888888888884E-01
-6.2063492063492065E-01
-6.0498866213151925E-01
-5.8934240362811796E-01
-5.7289377289377297E-01
-5.5744810744810747E-01
-5.4356261022927699E-01
-5.2936507936507937E-01
-5.1516754850088187E-01
-5.0097001763668436E-01
-4.8677248677248686E-01
-4.7128427128427136E-01
-4.5634920634920639E-01
-4.4141414141414148E-01
-4.3309415090237013E-01
-4.2709284627092853E-01
-4.2109154163948692E-01
-4.1509023700804532E-01
-4.0908893237660365E-01
-4.0308762774516205E-01
-3.9025725232621794E-01
-3.7515051997810628E-01
-3.6507936507936517E-01
-3.4682539682539693E-01
-3.2857142857142863E-01
-3.1031746031746038E-01
-2.8800705467372140E-01
-2.7178130511463855E-01
-2.6366843033509707E-01
 QETSC: Bins             =
                   -INF
-1.2777777777777777E+00
-1.2607407407407407E+00
-1.2453726379440664E+00
-1.2310476190476189E+00
-1.2164444444444444E+00
-1.2011111111111110E+00
-1.1828571428571428E+00
-1.1646031746031746E+00
-1.1463492063492062E+00
-1.1280952380952380E+00
-1.1098412698412699E+00
-1.0915873015873014E+00
-1.0733333333333333E+00
-1.0550793650793651E+00
-1.0368253968253967E+00
-1.0185714285714285E+00
-1.0003174603174603E+00
-9.8206349206349208E-01
-9.6380952380952378E-01
-9.4555555555555548E-01
-9.2730158730158729E-01
-9.0956916099773244E-01
-8.9392290249433104E-01
-8.7853741496598636E-01
-8.6507215007215010E-01
-8.5511544011544016E-01
-8.4565656565656566E-01
-8.3603174603174601E-01
-8.1960317460317456E-01
-7.9309145880574450E-01
-7.1312169312169316E-01
-6.9775359032501882E-01
-6.8342857142857150E-01
-6.6882539682539688E-01
-6.5349206349206346E-01
-6.3523809523809516E-01
-6.1750566893424041E-01
-6.0185941043083901E-01
-5.8605267748124901E-01
-5.6980463980463991E-01
-5.5467100800434133E-01
-5.4072310405643742E-01
-5.2652557319223992E-01
-5.1232804232804241E-01
-4.9813051146384485E-01
-4.8367484367484376E-01
-4.6829725829725838E-01
-4.5336219336219341E-01
-4.3975014331178719E-01
-4.3189388997608180E-01
-4.2589258534464020E-01
-4.1989128071319859E-01
-4.1388997608175698E-01
-4.0788867145031532E-01
-4.0052155266137324E-01
-3.8723590585659562E-01
-3.7313628899835805E-01
-3.6142857142857154E-01
-3.4317460317460324E-01
-3.2492063492063500E-01
-3.0585537918871258E-01
-2.8476190476190483E-01
-2.7015873015873026E-01
-2.5555555555555565E-01
QETSC: Started iter            2
QETSC: Bin type used         =           7
QETSC: Buffer used           =   0.0000000000000000E+00
QETSC: EPS interval          =      -INF,    -0.256
QETSC: Inertia type          =           1
SLEPc: EPSSolve time = 29 1.582e-06
SLEPc: EPSSolve time = 0 1.568e-06
SLEPc: EPSSolve time = 56 1.674e-06
SLEPc: EPSSolve time = 28 1.383e-06
SLEPc: EPSSolve time = 10 2.384e+00
SLEPc: EPSSolve time = 13 2.394e+00
SLEPc: EPSSolve time = 19 2.395e+00
SLEPc: EPSSolve time = 12 2.399e+00
SLEPc: EPSSolve time = 15 2.409e+00
SLEPc: EPSSolve time = 18 2.415e+00
SLEPc: EPSSolve time = 17 2.426e+00
SLEPc: EPSSolve time = 8 2.427e+00
SLEPc: EPSSolve time = 16 2.429e+00
SLEPc: EPSSolve time = 14 2.431e+00
SLEPc: EPSSolve time = 6 2.442e+00
SLEPc: EPSSolve time = 20 2.446e+00
SLEPc: EPSSolve time = 21 2.447e+00
SLEPc: EPSSolve time = 37 2.457e+00
SLEPc: EPSSolve time = 7 2.458e+00
SLEPc: EPSSolve time = 34 2.459e+00
SLEPc: EPSSolve time = 35 2.460e+00
SLEPc: EPSSolve time = 9 2.467e+00
SLEPc: EPSSolve time = 22 2.475e+00
SLEPc: EPSSolve time = 5 2.476e+00
SLEPc: EPSSolve time = 23 2.480e+00
SLEPc: EPSSolve time = 32 2.481e+00
SLEPc: EPSSolve time = 4 2.481e+00
SLEPc: EPSSolve time = 58 2.486e+00
SLEPc: EPSSolve time = 33 2.493e+00
SLEPc: EPSSolve time = 11 2.496e+00
SLEPc: EPSSolve time = 59 2.497e+00
SLEPc: EPSSolve time = 60 2.503e+00
SLEPc: EPSSolve time = 57 2.507e+00
SLEPc: EPSSolve time = 31 2.509e+00
SLEPc: EPSSolve time = 45 2.515e+00
SLEPc: EPSSolve time = 36 2.518e+00
SLEPc: EPSSolve time = 3 2.542e+00
SLEPc: EPSSolve time = 49 2.544e+00
SLEPc: EPSSolve time = 47 2.548e+00
SLEPc: EPSSolve time = 42 2.548e+00
SLEPc: EPSSolve time = 62 2.551e+00
SLEPc: EPSSolve time = 44 2.556e+00
SLEPc: EPSSolve time = 38 2.559e+00
SLEPc: EPSSolve time = 2 2.567e+00
SLEPc: EPSSolve time = 61 2.572e+00
SLEPc: EPSSolve time = 43 2.580e+00
SLEPc: EPSSolve time = 46 2.587e+00
SLEPc: EPSSolve time = 50 2.588e+00
SLEPc: EPSSolve time = 41 2.596e+00
SLEPc: EPSSolve time = 63 2.604e+00
SLEPc: EPSSolve time = 25 2.615e+00
SLEPc: EPSSolve time = 40 2.620e+00
SLEPc: EPSSolve time = 26 2.640e+00
SLEPc: EPSSolve time = 30 2.741e+00
SLEPc: EPSSolve time = 27 2.749e+00
SLEPc: EPSSolve time = 39 2.753e+00
SLEPc: EPSSolve time = 1 2.760e+00
SLEPc: EPSSolve time = 24 2.768e+00
SLEPc: EPSSolve time = 54 3.494e+00
SLEPc: EPSSolve time = 48 3.501e+00
SLEPc: EPSSolve time = 51 3.645e+00
SLEPc: EPSSolve time = 52 3.667e+00
SLEPc: EPSSolve time = 53 3.706e+00
SLEPc: EPSSolve time = 55 4.238e+00
 QETSC: Eigenvalues         =
-1.2740833956464988E+00
-1.2737830711229521E+00
-1.2737830711223637E+00
-1.2728822067898526E+00
-1.2728822067897045E+00
-1.2713811338663934E+00
-1.2713811338661754E+00
-1.2692810696392891E+00
-1.2692797616726221E+00
-1.2665808647167960E+00
-1.2665808647167651E+00
-1.2632835650016510E+00
-1.2632835650016327E+00
-1.2593898990821764E+00
-1.2593898990820931E+00
-1.2549019477429184E+00
-1.2549012135206188E+00
-1.2498206905186173E+00
-1.2498206905185485E+00
-1.2441497172617531E+00
-1.2441497172616920E+00
-1.2378916032292948E+00
-1.2378916032292069E+00
-1.2310614118713152E+00
-1.2310381336281988E+00
-1.2236282393364164E+00
-1.2236282393363698E+00
-1.2156316373782052E+00
-1.2156316373781759E+00
-1.2070652632724577E+00
-1.2070652632722376E+00
-1.1979374945854226E+00
-1.1979329270039707E+00
-1.1882484503965438E+00
-1.1882484503965347E+00
-1.1780129482223027E+00
-1.1780129482222805E+00
-1.1672378077171568E+00
-1.1672378077171386E+00
-1.1559339920308132E+00
-1.1559328957303991E+00
-1.1441117941558341E+00
-1.1441117941558008E+00
-1.1317865792138215E+00
-1.1317865792137956E+00
-1.1189736269936610E+00
-1.1189736269935864E+00
-1.1057002572266712E+00
-1.1056822825234147E+00
-1.0919608676635977E+00
-1.0919608676635766E+00
-1.0778074364787853E+00
-1.0778074364787562E+00
-1.0632604472729379E+00
-1.0632604472729137E+00
-1.0483567735696757E+00
-1.0483529625312049E+00
-1.0331324629048915E+00
-1.0331324629048668E+00
-1.0176434516652657E+00
-1.0176434516652255E+00
-1.0019486123950687E+00
-1.0019486123950165E+00
-9.8612194888869964E-01
-9.8612189879497925E-01
-9.7025382854753794E-01
-9.7025382854748121E-01
-9.5445514177881807E-01
-9.5445514177876767E-01
-9.3886147790826302E-01
-9.3886147790822372E-01
-9.2363798894951687E-01
-9.2363749804958162E-01
-9.0898165128484010E-01
-9.0898165128478881E-01
-8.9512427244841886E-01
-8.9512427244834980E-01
-8.8232451413139557E-01
-8.8232451413132174E-01
-8.7622787018939285E-01
-8.7602542012071305E-01
-8.7602542012011364E-01
-8.7542062553559141E-01
-8.7542062553545674E-01
-8.7441973695272179E-01
-8.7441973695251174E-01
-8.7303561080961190E-01
-8.7303186840619862E-01
-8.7127852803661654E-01
-8.7127852803658856E-01
-8.7085505523704321E-01
-8.7085189890869963E-01
-8.6917550079219641E-01
-8.6917550079217321E-01
-8.6675237654271142E-01
-8.6675237654263049E-01
-8.6404444838383199E-01
-8.6404417395630584E-01
-8.6109537111130730E-01
-8.6109537111123580E-01
-8.6096713330591601E-01
-8.6096713330577668E-01
-8.5796045162737211E-01
-8.5796045162733303E-01
-8.5470775568514445E-01
-8.5470775568511903E-01
-8.5286720385984494E-01
-8.5286720385980530E-01
-8.5142565582709018E-01
-8.5141808914952277E-01
-8.4820755176962970E-01
-8.4820755176959828E-01
-8.4666296196449098E-01
-8.4666296196443702E-01
-8.4519400755258722E-01
-8.4519400755258223E-01
-8.4253940355290091E-01
-8.4253940355269141E-01
-8.4234691724342092E-01
-8.4234679100665755E-01
-8.4043500470667565E-01
-8.4043410849131195E-01
-8.3979645718117268E-01
-8.3979645718113649E-01
-8.3910402633023906E-01
-8.3910402633020764E-01
-8.3880161050144952E-01
-8.3880161050142066E-01
-7.2730025045081248E-01
-7.2700939850549051E-01
-7.2700939850488111E-01
-7.2613737629212616E-01
-7.2613737629199049E-01
-7.2468579006297018E-01
-7.2468579006276601E-01
-7.2265815016326618E-01
-7.2265651883826820E-01
-7.2005582056432482E-01
-7.2005582056429951E-01
-7.1688621326879021E-01
-7.1688621326877211E-01
-7.1315468102587021E-01
-7.1315468102579183E-01
-7.0886878641720574E-01
-7.0886853017441109E-01
-7.0403692007413687E-01
-7.0403692007407859E-01
-6.9866967236519628E-01
-6.9866967236516064E-01
-6.9277867966745121E-01
-6.9277867966742790E-01
-6.8642432365752426E-01
-6.8632966262418948E-01
-6.7947998860579661E-01
-6.7947998860575676E-01
-6.7210494433527324E-01
-6.7210494433525447E-01
-6.6427063159241861E-01
-6.6427063159223965E-01
-6.5599876228756671E-01
-6.5599801871345143E-01
-6.4731192024330453E-01
-6.4731192024329642E-01
-6.3823749097915061E-01
-6.3823749097914251E-01
-6.2880413924893597E-01
-6.2880413924892165E-01
-6.1904396525290328E-01
-6.1904377054885984E-01
-6.0899186479124112E-01
-6.0899186479120659E-01
-5.9868686295636964E-01
-5.9868686295634743E-01
-5.8817604531184531E-01
-5.8817604531172829E-01
-5.8647024952280924E-01
-5.8646334975621794E-01
-5.8562073712426244E-01
-5.8562073712424201E-01
-5.8504754097682854E-01
-5.8504754097677003E-01
-5.8278866298860610E-01
-5.8278866298859822E-01
-5.8118546039745422E-01
-5.8118546039742136E-01
-5.7825782589385555E-01
-5.7825782589384045E-01
-5.7748854653269965E-01
-5.7747619454340793E-01
-5.7475110863084944E-01
-5.7475110863081869E-01
-5.7231010130551929E-01
-5.7230898783467699E-01
-5.6668373176866316E-01
-5.6668373176861309E-01
-5.6576742551425263E-01
-5.6576652633774871E-01
-5.6520300571268678E-01
-5.6520300571266924E-01
-5.5716945569808207E-01
-5.5716945569806964E-01
-5.5582007519870258E-01
-5.5582007519864907E-01
-5.5437333257858301E-01
-5.5437333257855936E-01
-5.4841251810731850E-01
-5.4841251810729319E-01
-5.4494868571818345E-01
-5.4494868571814370E-01
-5.4080667164345142E-01
-5.4080667164341956E-01
-5.3911197020251977E-01
-5.3911092027939023E-01
-5.3413308999786568E-01
-5.3412603406120573E-01
-5.2942526542175528E-01
-5.2942526542172752E-01
-5.2536130298445971E-01
-5.2536130298442030E-01
-5.2342567658012884E-01
-5.2342567658008432E-01
-5.1949674663682754E-01
-5.1949674663680923E-01
-5.1290252262417291E-01
-5.1290252262410319E-01
-5.0945568158246901E-01
-5.0945568158246113E-01
-5.0835365362232743E-01
-5.0835312839879743E-01
-5.0262740318543442E-01
-5.0262740318535182E-01
-4.9942402639680805E-01
-4.9941862679825061E-01
-4.9266855673839682E-01
-4.9266841447024967E-01
-4.9009633340121805E-01
-4.9009633340108488E-01
-4.8950398865155970E-01
-4.8950398865153610E-01
-4.8309360964760389E-01
-4.8309360964752557E-01
-4.7980584570949475E-01
-4.7980584570946305E-01
-4.7396886157349932E-01
-4.7396886157343343E-01
-4.7088867386220334E-01
-4.7088867386219002E-01
-4.7042079683333149E-01
-4.7042079683330101E-01
-4.6535694402365774E-01
-4.6535694402361238E-01
-4.6143615156780921E-01
-4.6143302177236684E-01
-4.5732166762059095E-01
-4.5730912097910281E-01
-4.5292312845131261E-01
-4.5292312845123694E-01
-4.5101243500386928E-01
-4.5101243500385590E-01
-4.4989476033589976E-01
-4.4989476033584874E-01
-4.4495178264168850E-01
-4.4495178264166979E-01
-4.4313683317309199E-01
-4.4313683317302466E-01
-4.3757398260657965E-01
-4.3757398260655594E-01
-4.3707302221474326E-01
-4.3707302221467859E-01
-4.3172614017283167E-01
-4.3172017373803123E-01
-4.3084098782383845E-01
-4.3083068229491056E-01
-4.3082953377818584E-01
-4.3063038578993934E-01
-4.2709495210744758E-01
-4.2709495210731291E-01
-4.2510485315814556E-01
-4.2500575382785977E-01
-4.2500575382725059E-01
-4.2474790806856594E-01
-4.2474790806855089E-01
-4.2471430129002929E-01
-4.2471430128989873E-01
-4.2423234234106383E-01
-4.2423234234086915E-01
-4.2357666866757365E-01
-4.2357384363384787E-01
-4.2317988498530346E-01
-4.2317988498527531E-01
-4.2275937082298781E-01
-4.2275937082296444E-01
-4.2180642541800284E-01
-4.2180642541798552E-01
-4.2074317801448863E-01
-4.2074317801441397E-01
-4.1996529252808917E-01
-4.1996529252805215E-01
-4.1960204797688661E-01
-4.1960088394285744E-01
-4.1934466007882487E-01
-4.1934466007881255E-01
-4.1841821435514831E-01
-4.1841821435509224E-01
-4.1741781905739761E-01
-4.1741780756645752E-01
-4.1723548924238174E-01
-4.1723548924234433E-01
-4.1610095489591725E-01
-4.1610095489588850E-01
-4.1549663499548201E-01
[...]

/home/keceli/scratch2/siesta-qetsc/Obj/siesta on a arch-xl named Q02-I0-J03.vesta.itd with 64 processors, by Unknown Wed Jan 11 18:03:21 2017
Using Petsc Development GIT revision: v3.7.3-1204-g68f0caa  GIT Date: 2016-08-19 16:41:02 -0500

                         Max       Max/Min        Avg      Total 
Time (sec):           1.018e+02      1.00000   1.018e+02
Objects:              2.057e+03      1.06086   2.050e+03
Flops:                4.831e+09   1972.15860   3.376e+09  2.161e+11
Flops/sec:            4.744e+07   1972.15845   3.316e+07  2.122e+09
MPI Messages:         1.183e+04      1.64383   8.884e+03  5.685e+05
MPI Message Lengths:  5.115e+07      2.14361   4.277e+03  2.431e+09
MPI Reductions:       7.102e+03      1.00000

Flop counting convention: 1 flop = 1 real number operation of type (multiply/divide/add/subtract)
                            e.g., VecAXPY() for real vectors of length N --> 2N flops
                            and VecAXPY() for complex vectors of length N --> 8N flops

Summary of Stages:   ----- Time ------  ----- Flops -----  --- Messages ---  -- Message Lengths --  -- Reductions --
                        Avg     %Total     Avg     %Total   counts   %Total     Avg         %Total   counts   %Total 
 0:      Main Stage: 1.9446e-04   0.0%  0.0000e+00   0.0%  0.000e+00   0.0%  0.000e+00        0.0%  0.000e+00   0.0% 
 1:     siesta_init: 2.8229e+00   2.8%  0.0000e+00   0.0%  0.000e+00   0.0%  0.000e+00        0.0%  0.000e+00   0.0% 
 2:   siesta_forces: 1.6837e+01  16.5%  0.0000e+00   0.0%  0.000e+00   0.0%  0.000e+00        0.0%  0.000e+00   0.0% 
 3:    siesta_solve: 2.8968e-03   0.0%  0.0000e+00   0.0%  0.000e+00   0.0%  0.000e+00        0.0%  0.000e+00   0.0% 
 4:    siesta2qetsc: 1.0303e-01   0.1%  0.0000e+00   0.0%  1.150e+03   0.2%  2.940e-01        0.0%  5.300e+01   0.7% 
 5: qetsc_setup_eps: 5.1945e+00   5.1%  1.5676e+08   0.1%  2.022e+05  35.6%  4.099e+03       95.9%  4.400e+01   0.6% 
 6: qetsc_solve_eps: 4.3869e+01  43.1%  2.1593e+11  99.9%  1.134e+03   0.2%  1.197e-02        0.0%  7.200e+01   1.0% 
 7:   qetsc_eigvals: 2.4197e-02   0.0%  0.0000e+00   0.0%  0.000e+00   0.0%  0.000e+00        0.0%  0.000e+00   0.0% 
 8:   qetsc_density: 7.9082e+00   7.8%  0.0000e+00   0.0%  3.640e+05  64.0%  1.770e+02        4.1%  6.932e+03  97.6% 
10:     siesta_misc: 2.3917e+01  23.5%  0.0000e+00   0.0%  0.000e+00   0.0%  0.000e+00        0.0%  0.000e+00   0.0% 
11:     siesta_move: 1.1318e-01   0.1%  0.0000e+00   0.0%  0.000e+00   0.0%  0.000e+00        0.0%  0.000e+00   0.0% 
12: siesta_analysis: 1.6227e-02   0.0%  0.0000e+00   0.0%  0.000e+00   0.0%  0.000e+00        0.0%  0.000e+00   0.0% 
13:     qetsc_clean: 3.2312e-06   0.0%  0.0000e+00   0.0%  0.000e+00   0.0%  0.000e+00        0.0%  0.000e+00   0.0% 
14:      siesta_end: 1.0266e+00   1.0%  0.0000e+00   0.0%  0.000e+00   0.0%  0.000e+00        0.0%  0.000e+00   0.0% 

------------------------------------------------------------------------------------------------------------------------
See the 'Profiling' chapter of the users' manual for details on interpreting output.
Phase summary info:
   Count: number of times phase was executed
   Time and Flops: Max - maximum over all processors
                   Ratio - ratio of maximum to minimum over all processors
   Mess: number of messages sent
   Avg. len: average message length (bytes)
   Reduct: number of global reductions
   Global: entire computation
   Stage: stages of a computation. Set stages with PetscLogStagePush() and PetscLogStagePop().
      %T - percent time in this phase         %F - percent flops in this phase
      %M - percent messages in this phase     %L - percent message lengths in this phase
      %R - percent reductions in this phase
   Total Mflop/s: 10e-6 * (sum of flops over all processors)/(max time over all processors)
------------------------------------------------------------------------------------------------------------------------
Event                Count      Time (sec)     Flops                             --- Global ---  --- Stage ---   Total
                   Max Ratio  Max     Ratio   Max  Ratio  Mess   Avg len Reduct  %T %F %M %L %R  %T %F %M %L %R Mflop/s
------------------------------------------------------------------------------------------------------------------------

--- Event Stage 0: Main Stage


--- Event Stage 1: siesta_init


--- Event Stage 2: siesta_forces


--- Event Stage 3: siesta_solve


--- Event Stage 4: siesta2qetsc

MatConvert             2 1.0 1.0446e-03 1.0 0.00e+00 0.0 0.0e+00 0.0e+00 0.0e+00  0  0  0  0  0   1  0  0  0  0     0
MatAssemblyBegin      10 1.0 6.9672e-0248.8 0.00e+00 0.0 0.0e+00 0.0e+00 4.0e+01  0  0  0  0  1  46  0  0  0 75     0
MatAssemblyEnd        10 1.0 3.5703e-03 1.0 0.00e+00 0.0 1.2e+03 1.5e+02 1.1e+01  0  0  0  0  0   3  0100100 21     0
VecSet                 3 1.0 1.2138e-05 1.3 0.00e+00 0.0 0.0e+00 0.0e+00 0.0e+00  0  0  0  0  0   0  0  0  0  0     0

--- Event Stage 5: qetsc_setup_eps

MatCholFctrSym         1 1.0 5.0800e-01 1.1 0.00e+00 0.0 0.0e+00 0.0e+00 0.0e+00  0  0  0  0  0   9  0  0  0  0     0
MatCholFctrNum         5 1.0 2.3296e+00 1.0 0.00e+00 0.0 0.0e+00 0.0e+00 0.0e+00  2  0  0  0  0  44  0  0  0  0     0
MatCopy               11 1.0 4.1493e-01 1.0 0.00e+00 0.0 0.0e+00 0.0e+00 0.0e+00  0  0  0  0  0   8  0  0  0  0     0
MatConvert             4 1.0 2.4389e-02 2.6 0.00e+00 0.0 0.0e+00 0.0e+00 0.0e+00  0  0  0  0  0   0  0  0  0  0     0
MatScale              16 1.0 1.1559e-02 7.1 2.45e+06 1.0 0.0e+00 0.0e+00 0.0e+00  0  0  0  0  0   0100  0  0  0 13562
MatAssemblyBegin      19 1.0 8.2035e-05 3.1 0.00e+00 0.0 0.0e+00 0.0e+00 0.0e+00  0  0  0  0  0   0  0  0  0  0     0
MatAssemblyEnd        19 1.0 5.7876e-02 1.1 0.00e+00 0.0 0.0e+00 0.0e+00 0.0e+00  0  0  0  0  0   1  0  0  0  0     0
MatGetRow          41216 1.0 3.4352e-01 1.0 0.00e+00 0.0 0.0e+00 0.0e+00 0.0e+00  0  0  0  0  0   7  0  0  0  0     0
MatGetRowIJ            1 1.0 4.7863e-06 4.5 0.00e+00 0.0 0.0e+00 0.0e+00 0.0e+00  0  0  0  0  0   0  0  0  0  0     0
MatGetSubMatrice      10 1.0 9.0699e-01 1.1 0.00e+00 0.0 2.0e+05 1.2e+04 2.0e+01  1  0 35 96  0  16  0100100 45     0
MatGetOrdering         1 1.0 4.5362e-04 1.7 0.00e+00 0.0 0.0e+00 0.0e+00 0.0e+00  0  0  0  0  0   0  0  0  0  0     0
MatZeroEntries         4 1.0 6.3656e-03 1.1 0.00e+00 0.0 0.0e+00 0.0e+00 0.0e+00  0  0  0  0  0   0  0  0  0  0     0
MatAXPY               13 1.0 1.0366e+00 1.0 0.00e+00 0.0 0.0e+00 0.0e+00 0.0e+00  1  0  0  0  0  20  0  0  0  0     0
MatRedundantMat       10 1.0 9.2204e-01 1.1 0.00e+00 0.0 2.0e+05 1.2e+04 2.0e+01  1  0 35 96  0  17  0100100 45     0
VecSet                19 1.0 8.2906e-04 2.8 0.00e+00 0.0 0.0e+00 0.0e+00 0.0e+00  0  0  0  0  0   0  0  0  0  0     0
EPSSetUp               5 1.0 4.4741e+00 1.0 0.00e+00 0.0 4.1e+04 1.1e+04 2.6e+01  4  0  7 19  0  86  0 20 20 59     0
STSetUp               10 1.0 4.2097e+00 1.0 0.00e+00 0.0 0.0e+00 0.0e+00 2.0e+00  4  0  0  0  0  80  0  0  0  5     0
KSPSetUp               5 1.0 1.1855e-05 2.0 0.00e+00 0.0 0.0e+00 0.0e+00 0.0e+00  0  0  0  0  0   0  0  0  0  0     0
PCSetUp                5 1.0 2.8055e+00 1.0 0.00e+00 0.0 0.0e+00 0.0e+00 0.0e+00  3  0  0  0  0  53  0  0  0  0     0

--- Event Stage 6: qetsc_solve_eps

MatMult             2886 0.0 1.3416e+01 0.0 3.51e+09 0.0 0.0e+00 0.0e+00 0.0e+00  9 73  0  0  0  21 73  0  0  0 11727
MatSolve            1086 0.0 1.6294e+01 0.0 0.00e+00 0.0 0.0e+00 0.0e+00 0.0e+00 11  0  0  0  0  27  0  0  0  0     0
MatCholFctrNum         9 1.0 4.1736e+00 1.0 0.00e+00 0.0 0.0e+00 0.0e+00 0.0e+00  4  0  0  0  0   9  0  0  0  0     0
MatCopy                9 1.0 8.9425e-01 1.0 0.00e+00 0.0 0.0e+00 0.0e+00 0.0e+00  1  0  0  0  0   2  0  0  0  0     0
MatAssemblyBegin      18 1.0 2.6151e-05 1.6 0.00e+00 0.0 0.0e+00 0.0e+00 0.0e+00  0  0  0  0  0   0  0  0  0  0     0
MatAssemblyEnd        18 1.0 5.1574e-02 1.1 0.00e+00 0.0 0.0e+00 0.0e+00 0.0e+00  0  0  0  0  0   0  0  0  0  0     0
MatGetRow          79488 1.0 6.5658e-01 1.0 0.00e+00 0.0 0.0e+00 0.0e+00 0.0e+00  1  0  0  0  0   1  0  0  0  0     0
MatZeroEntries         9 1.0 1.5705e-02 1.0 0.00e+00 0.0 0.0e+00 0.0e+00 0.0e+00  0  0  0  0  0   0  0  0  0  0     0
MatAXPY                9 1.0 1.8030e+00 1.0 0.00e+00 0.0 0.0e+00 0.0e+00 0.0e+00  2  0  0  0  0   4  0  0  0  0     0
VecDot               149 0.0 1.8230e-03 0.0 8.77e+05 0.0 0.0e+00 0.0e+00 0.0e+00  0  0  0  0  0   0  0  0  0  0 11160
VecCopy             1104 0.0 8.3801e-03 0.0 0.00e+00 0.0 0.0e+00 0.0e+00 0.0e+00  0  0  0  0  0   0  0  0  0  0     0
VecSet              4053150.1 3.5474e-02261.4 0.00e+00 0.0 0.0e+00 0.0e+00 0.0e+00  0  0  0  0  0   0  0  0  0  0     0
VecSetRandom           9 0.0 1.5849e-02 0.0 0.00e+00 0.0 0.0e+00 0.0e+00 0.0e+00  0  0  0  0  0   0  0  0  0  0     0
EPSSetUp               9 1.0 7.6122e+00 1.1 0.00e+00 0.0 1.1e+03 6.0e+00 1.8e+01  7  0  0  0  0  17  0100100 25     0
EPSSolve               9 1.0 4.3892e+01 1.0 4.83e+09 0.0 1.1e+03 6.0e+00 7.2e+01 43100  0  0  1 100100100100100  4920
STSetUp               13 1.0 3.0560e+00 1.0 0.00e+00 0.0 0.0e+00 0.0e+00 0.0e+00  3  0  0  0  0   7  0  0  0  0     0
STApply             1086 0.0 2.1520e+01 0.0 1.32e+09 0.0 0.0e+00 0.0e+00 0.0e+00 15 27  0  0  0  35 27  0  0  0  2733
STMatSolve          1086 0.0 1.6464e+01 0.0 0.00e+00 0.0 0.0e+00 0.0e+00 0.0e+00 12  0  0  0  0  27  0  0  0  0     0
KSPSetUp               9 1.0 1.8481e-05 2.0 0.00e+00 0.0 0.0e+00 0.0e+00 0.0e+00  0  0  0  0  0   0  0  0  0  0     0
KSPSolve            1086 0.0 1.6341e+01 0.0 0.00e+00 0.0 0.0e+00 0.0e+00 0.0e+00 11  0  0  0  0  27  0  0  0  0     0
PCSetUp                9 1.0 4.1738e+00 1.0 0.00e+00 0.0 0.0e+00 0.0e+00 0.0e+00  4  0  0  0  0   9  0  0  0  0     0
PCApply             1086 0.0 1.6300e+01 0.0 0.00e+00 0.0 0.0e+00 0.0e+00 0.0e+00 11  0  0  0  0  27  0  0  0  0     0
BVCreate              18 0.0 1.6605e-02 0.0 0.00e+00 0.0 0.0e+00 0.0e+00 0.0e+00  0  0  0  0  0   0  0  0  0  0     0
BVCopy                18 0.0 2.7435e-04 0.0 0.00e+00 0.0 0.0e+00 0.0e+00 0.0e+00  0  0  0  0  0   0  0  0  0  0     0
BVMultVec           1673 0.0 4.9120e-01 0.0 4.61e+08 0.0 0.0e+00 0.0e+00 0.0e+00  0  9  0  0  0   1  9  0  0  0 37962
BVMultInPlace         18 0.0 1.7943e-01 0.0 3.82e+08 0.0 0.0e+00 0.0e+00 0.0e+00  0 10  0  0  0   0 10  0  0  0 115306
BVDotVec            1673 0.0 8.0926e+00 0.0 2.51e+09 0.0 0.0e+00 0.0e+00 0.0e+00  6 52  0  0  0  13 53  0  0  0 14015
BVOrthogonalizeV     959 0.0 8.5606e+00 0.0 2.97e+09 0.0 0.0e+00 0.0e+00 0.0e+00  6 61  0  0  0  14 61  0  0  0 15427
BVScale             1086 0.0 9.5569e-03 0.0 3.20e+06 0.0 0.0e+00 0.0e+00 0.0e+00  0  0  0  0  0   0  0  0  0  0 14901
BVNormVec            149 0.0 6.9330e-01 0.0 1.82e+08 0.0 0.0e+00 0.0e+00 0.0e+00  0  2  0  0  0   1  2  0  0  0  6090
BVSetRandom            9 0.0 1.5941e-02 0.0 0.00e+00 0.0 0.0e+00 0.0e+00 0.0e+00  0  0  0  0  0   0  0  0  0  0     0
DSSolve               18 0.0 1.7233e-01 0.0 0.00e+00 0.0 0.0e+00 0.0e+00 0.0e+00  0  0  0  0  0   0  0  0  0  0     0
DSVectors           1176 0.0 2.7263e-03 0.0 0.00e+00 0.0 0.0e+00 0.0e+00 0.0e+00  0  0  0  0  0   0  0  0  0  0     0
DSOther               18 0.0 4.8869e-03 0.0 0.00e+00 0.0 0.0e+00 0.0e+00 0.0e+00  0  0  0  0  0   0  0  0  0  0     0

--- Event Stage 7: qetsc_eigvals


--- Event Stage 8: qetsc_density

VecCopy             3456 1.0 8.8976e-03 1.1 0.00e+00 0.0 0.0e+00 0.0e+00 0.0e+00  0  0  0  0  0   0  0  0  0  0     0
VecSet                 1 1.0 9.9369e-06 2.1 0.00e+00 0.0 0.0e+00 0.0e+00 0.0e+00  0  0  0  0  0   0  0  0  0  0     0
VecScatterBegin     6912 1.0 6.9751e-01 1.1 0.00e+00 0.0 2.2e+05 3.7e+02 3.5e+03  1  0 38  3 49   9  0 60 80 50     0
VecScatterEnd       3456 1.0 1.4457e+00 1.1 0.00e+00 0.0 0.0e+00 0.0e+00 0.0e+00  1  0  0  0  0  18  0  0  0  0     0
BVCopy              3456 1.0 2.6361e-02 1.1 0.00e+00 0.0 0.0e+00 0.0e+00 0.0e+00  0  0  0  0  0   0  0  0  0  0     0

--- Event Stage 9: Unknown


--- Event Stage 10: siesta_misc


--- Event Stage 11: siesta_move


--- Event Stage 12: siesta_analysis


--- Event Stage 13: qetsc_clean


--- Event Stage 14: siesta_end

------------------------------------------------------------------------------------------------------------------------

Memory usage is given in bytes:

Object Type          Creations   Destructions     Memory  Descendants' Mem.
Reports information only for process 0.

--- Event Stage 0: Main Stage


--- Event Stage 1: siesta_init


--- Event Stage 2: siesta_forces


--- Event Stage 3: siesta_solve


--- Event Stage 4: siesta2qetsc

              Matrix     9              0            0     0.
              Vector    19              1         1648     0.
      Vector Scatter     4              0            0     0.
           Index Set     4              4         7552     0.

--- Event Stage 5: qetsc_setup_eps

              Matrix    13              5     24074116     0.
              Vector    38             20       313184     0.
           Index Set    28             21        16464     0.
          EPS Solver     2              0            0     0.
  Spectral Transform     2              0            0     0.
       Krylov Solver     2              0            0     0.
      Preconditioner     2              0            0     0.
       Basis Vectors     7              4         4224     0.
         PetscRandom     1              0            0     0.
              Region     2              0            0     0.
       Direct Solver     2              0            0     0.

--- Event Stage 6: qetsc_solve_eps

              Matrix     9              9     44435628     0.
              Vector    45             45       704664     0.
       Basis Vectors     9              9         9504     0.

--- Event Stage 7: qetsc_eigvals


--- Event Stage 8: qetsc_density

              Vector    10              9       226800     0.
      Vector Scatter   577            576       620784     0.
           Index Set  1153           1153      1115920     0.

--- Event Stage 9: Unknown


--- Event Stage 10: siesta_misc


--- Event Stage 11: siesta_move

              Matrix     0             17     34802996     0.
              Vector     0             37      2289280     0.
      Vector Scatter     0              5         4944     0.
           Index Set     0              7        17264     0.
          EPS Solver     0              2        25144     0.
  Spectral Transform     0              2         1632     0.
       Krylov Solver     0              2         2336     0.
      Preconditioner     0              2         1952     0.
       Basis Vectors     0              3         3168     0.
         PetscRandom     0              1          638     0.
              Region     0              2         1312     0.
       Direct Solver     0              2       109992     0.

--- Event Stage 12: siesta_analysis


--- Event Stage 13: qetsc_clean


--- Event Stage 14: siesta_end

              Viewer     1              0            0     0.
========================================================================================================================
Average time to get PetscTime(): 1.24437e-07
Average time for MPI_Barrier(): 2.87675e-06
Average time for zero size MPI_Send(): 1.12243e-05
#PETSc Option Table entries:
-eps_interval -2.3,0.
-eps_krylovschur_detect_zeros 0
-eps_krylovschur_partitions 64
-ioptbin 7
-ioptdensity 0
-ioptinertia 1
-ioptleft 2
-ioptwrite 1
-log_view
-mat_mumps_cntl_3 1e-12
-mat_mumps_icntl_13 1
-mat_mumps_icntl_23 0
-mat_mumps_icntl_24 1
-mat_mumps_icntl_7 5
-mat_type mpisbaij
#End of PETSc Option Table entries
Compiled with FORTRAN kernels
Compiled with full precision matrices (default)
sizeof(short) 2 sizeof(int) 4 sizeof(long) 8 sizeof(void*) 8 sizeof(PetscScalar) 8 sizeof(PetscInt) 4
Configure options: --known-has-attribute-aligned=1 --download-chaco=0 --download-cmake=0 --download-hypre=0 --download-metis=1 --download-mumps=1 --download-parmetis=1 --download-plapack=0 --download-prometheus=0 --download-ptscotch=1 --download-spai=0 --download-spooles=0 --download-superlu=0 --download-superlu_dist=0 --download-triangle=0 --known-bits-per-byte=8 --known-level1-dcache-assoc=0 --known-level1-dcache-linesize=32 --known-level1-dcache-size=32768 --known-memcmp-ok=1 --known-mpi-c-double-complex=1 --known-mpi-int64_t=1 --known-mpi-long-double=1 --known-mpi-shared-libraries=0 --known-sdot-returns-double=0 --known-sizeof-MPI_Comm=4 --known-sizeof-MPI_Fint=4 --known-sizeof-char=1 --known-sizeof-double=8 --known-sizeof-float=4 --known-sizeof-int=4 --known-sizeof-long-long=8 --known-sizeof-long=8 --known-sizeof-short=2 --known-sizeof-size_t=8 --known-sizeof-void-p=8 --known-snrm2-returns-double=0 --with-batch=1 --with-blacs-include=/soft/libraries/alcf/current/xl/SCALAPACK/ --with-blacs-lib=/soft/libraries/alcf/current/xl/SCALAPACK/lib/libscalapack.a --with-blas-lapack-lib="-L/soft/libraries/alcf/current/xl/LAPACK/lib -llapack -L/soft/libraries/alcf/current/xl/BLAS/lib -lblas" --with-cc=mpixlc_r --with-clib-autodetect=0 --with-cxx=mpixlcxx_r --with-cxxlib-autodetect=0 --with-debugging=0 --with-fc="mpixlf77_r -qnosave" --with-fortran-kernels=1 --with-fortranlib-autodetect=0 --with-is-color-value-type=short --with-scalapack-include=/soft/libraries/alcf/current/xl/SCALAPACK/ --with-scalapack-lib=/soft/libraries/alcf/current/xl/SCALAPACK/lib/libscalapack.a --with-shared-libraries=0 --with-x=0 -COPTFLAGS=" -g -O3 -qhot=level=0 -qsimd=auto -qmaxmem=-1 -qstrict -qstrict_induction" -CXXOPTFLAGS="  -g -O3 -qhot=level=0 -qsimd=auto -qmaxmem=-1 -qstrict -qstrict_induction" -FOPTFLAGS=" -g -O3 -qhot=level=0 -qsimd=auto -qmaxmem=-1 -qstrict -qstrict_induction" LIBS="-lmpichcxx-gcc -lmpichf77-gcc -L/soft/compilers/ibmcmp-feb2015/vacpp/bg/12.1/bglib64 -libmc++ -L/soft/compilers/ibmcmp-feb2015/xlf/bg/14.1/bglib64 -lxlf90_r -lxlomp_ser -lxlfmath" PETSC_ARCH=arch-xl
-----------------------------------------
Libraries compiled on Sat Aug 20 04:19:47 2016 on vestalac2 
Machine characteristics: Linux-2.6.32-573.18.1.el6.ppc64-ppc64-with-redhat-6.7-Santiago
Using PETSc directory: /home/keceli/scratch2/petsc
Using PETSc arch: arch-xl
-----------------------------------------

Using C compiler: mpixlc_r   -g -O3 -qhot=level=0 -qsimd=auto -qmaxmem=-1 -qstrict -qstrict_induction  ${COPTFLAGS} ${CFLAGS}
Using Fortran compiler: mpixlf77_r -qnosave  -g -O3 -qhot=level=0 -qsimd=auto -qmaxmem=-1 -qstrict -qstrict_induction   ${FOPTFLAGS} ${FFLAGS} 
-----------------------------------------

Using include paths: -I/home/keceli/scratch2/petsc/arch-xl/include -I/home/keceli/scratch2/petsc/include -I/home/keceli/scratch2/petsc/include -I/home/keceli/scratch2/petsc/arch-xl/include -I/bgsys/drivers/V1R2M4/ppc64/comm/include -I/bgsys/drivers/V1R2M4/ppc64/comm/lib/xl -I/bgsys/drivers/V1R2M4/ppc64 -I/bgsys/drivers/V1R2M4/ppc64/comm/sys/include -I/bgsys/drivers/V1R2M4/ppc64/spi/include -I/bgsys/drivers/V1R2M4/ppc64/spi/include/kernel/cnk
-----------------------------------------

Using C linker: mpixlc_r
Using Fortran linker: mpixlf77_r -qnosave
Using libraries: -Wl,-rpath,/home/keceli/scratch2/petsc/arch-xl/lib -L/home/keceli/scratch2/petsc/arch-xl/lib -lpetsc -Wl,-rpath,/home/keceli/scratch2/petsc/arch-xl/lib -L/home/keceli/scratch2/petsc/arch-xl/lib -lcmumps -ldmumps -lsmumps -lzmumps -lmumps_common -lpord -Wl,-rpath,/soft/libraries/alcf/current/xl/SCALAPACK/lib -L/soft/libraries/alcf/current/xl/SCALAPACK/lib -lscalapack -L/soft/libraries/alcf/current/xl/LAPACK/lib -llapack -L/soft/libraries/alcf/current/xl/BLAS/lib -lblas -lparmetis -lmetis -lptesmumps -lptscotch -lptscotcherr -lscotch -lscotcherr -lrt -lm -lpthread -ldl -lmpichcxx-gcc -lmpichf77-gcc -L/soft/compilers/ibmcmp-feb2015/vacpp/bg/12.1/bglib64 -libmc++ -L/soft/compilers/ibmcmp-feb2015/xlf/bg/14.1/bglib64 -lxlf90_r -lxlomp_ser -lxlfmath
-----------------------------------------

