s.subSiesta: Submission time = 52s59m17h
s.subSiesta: Job name = qp64_s64_n32_c16_vesta
s.subSiesta: Number of nodes = 32
s.subSiesta: Number of cores = 512
s.subSiesta: Number of cores/node = 16
s.subSiesta: Number of slices = 64
s.subSiesta: Mapping = ABCDET
52s59m17h
#QETSc options
-ioptbin 7
-ioptdensity 0
-ioptinertia 1
-ioptleft 2
-ioptwrite 1 
#-roptbuffer 0.01
#-roptdiff 0.02

#PETSc options
-mat_type mpisbaij
-log_view
#-mat_view
#-memory_view
#-mat_mumps_icntl_13 1 #turn off scaLAPACK for matrix inertia
#-mat_mumps_icntl_24 1 #null pivot row detection for matrix inertia
-mat_mumps_icntl_23 0
#-mat_mumps_icntl_28 1 # serial analysis
#-mat_mumps_icntl_28 2 #parallel analysis
#-mat_mumps_icntl_29 1 #ptscotch
#-mat_mumps_icntl_29 2 #parmetis
-mat_mumps_icntl_7 5 #metis
#-malloc_info 
#-mat_view ::ascii_info 
#-mat_getrow_uppertriangular 1
#-st_type sinvert 
#-st_ksp_type preonly 
#-st_pc_type cholesky 
#-st_pc_factor_mat_solver_package mumps 

#SLEPc options

#-eps_krylovschur_partitions 1  
-eps_interval -2.3,0.
#-eps_tol  1.e-8
-eps_krylovschur_detect_zeros 0
#-eps_purify 1
SystemName          polyethylene
SystemLabel         polyethylene
NumberOfAtoms       6
NumberOfSpecies     2

%block ChemicalSpeciesLabel
 1  6  C
 2  1  H
%endblock ChemicalSpeciesLabel

DM.MixingWeight 0.3
DM.NumberPulay 3
#BlockSize 23
SolutionMethod  qetsc
WriteDM .false.
WriteDM.NetCDF .false.
WriteDMHS.NetCDF .false.
LongOutput .false.
#MaxSCFIterations 1

PAO.BasisType split
PAO.BasisSize DZP

LatticeConstant 1.00 Ang
%block LatticeVectors
20.000  0.000  0.000
 0.000 20.000  0.000
 0.000  0.000  2.572
%endblock LatticeVectors

%block kgrid_Monkhorst_Pack
1 0 0 0.0
0 1 0 0.0
0 0 1 0.0
%endblock kgrid_Monkhorst_Pack

%block SuperCell
1 0 0
0 1 0
0 0 64
%endblock SuperCell

AtomicCoordinatesFormat Ang
%block AtomicCoordinatesAndAtomicSpecies
  0.31237500000000001       0.28138740000000001       0.64300000000000002     1
   1.3964999999999999        7.3970400000000006E-002  0.64300000000000002     2
  0.21462000000000001        1.3794480000000002       0.64300000000000002     2
 -0.31237500000000001      -0.28138740000000001      -0.64300000000000002     1
  -1.3964999999999999       -7.3970400000000006E-002 -0.64300000000000002     2
 -0.21462000000000001       -1.3794480000000002      -0.64300000000000002     2
%endblock AtomicCoordinatesAndAtomicSpecies
Siesta Version: siesta-trunk-492
Architecture  : powerpc64-unknown-linux-gnu--Xlf
Compiler flags: mpixlf90_r -I/home/keceli/scratch2/petsc/include -I/home/keceli/scratch2/petssc/arch-xl/include -I/bgsys/drivers/V1R2M4/ppc64/comm/include -I/bgsys/drivers/V1R2M4/ppc64/comm/lib/xl -I/bgsys/drivers/V1R2M4/ppc64 -I/bgsys/drivers/V1R2M4/ppc64/comm/sys/include -I/bgsys/drivers/V1R2M4/ppc64/spi/include -I/bgsys/drivers/V1R2M4/ppc64/spi/include/kernel/cnk -I/home/keceli/scratch2/slepcfork/include -I/home/keceli/scratch2/slepcfork/arch-xl/include
PP flags      : -WF,-DMPI -WF,-DFC_HAVE_ABORT -WF,-DBSC_CELLXC -WF,-DMPI_TIMING 
PARALLEL version

* Running on  512 nodes in parallel
>> Start of run:  11-JAN-2017  18:00:47

                           ***********************       
                           *  WELCOME TO SIESTA  *       
                           ***********************       
WARNING: Siesta is reading its input from file INPUT_DEBUG

reinit: -----------------------------------------------------------------------
reinit: System Name: polyethylene
reinit: -----------------------------------------------------------------------
reinit: System Label: polyethylene                                                
reinit: -----------------------------------------------------------------------

initatom: Reading input for the pseudopotentials and atomic orbitals ----------
Species number:   1 Atomic number:    6 Label: C
Species number:   2 Atomic number:    1 Label: H
 
Ground state valence configuration:   2s02  2p02
Reading pseudopotential information in formatted form from C.psf

Valence configuration for pseudopotential generation:
2s( 2.00) rc: 1.54
2p( 2.00) rc: 1.54
3d( 0.00) rc: 1.54
4f( 0.00) rc: 1.54
Ground state valence configuration:   1s01
Reading pseudopotential information in formatted form from H.psf

Valence configuration for pseudopotential generation:
1s( 1.00) rc: 1.31
2p( 0.00) rc: 1.31
3d( 0.00) rc: 0.37
4f( 0.00) rc: 1.31
For C, standard SIESTA heuristics set lmxkb to 3
 (one more than the basis l, including polarization orbitals).
Use PS.lmax or PS.KBprojectors blocks to override.
For H, standard SIESTA heuristics set lmxkb to 2
 (one more than the basis l, including polarization orbitals).
Use PS.lmax or PS.KBprojectors blocks to override.

<basis_specs>
===============================================================================
C                    Z=   6    Mass=  12.010        Charge= 0.17977+309
Lmxo=1 Lmxkb= 3    BasisType=split      Semic=F
L=0  Nsemic=0  Cnfigmx=2
          n=1  nzeta=2  polorb=0
            splnorm:   0.15000    
               vcte:    0.0000    
               rinn:    0.0000    
               qcoe:    0.0000    
               qyuk:    0.0000    
               qwid:   0.10000E-01
                rcs:    0.0000      0.0000    
            lambdas:    1.0000      1.0000    
L=1  Nsemic=0  Cnfigmx=2
          n=1  nzeta=2  polorb=1
            splnorm:   0.15000    
               vcte:    0.0000    
               rinn:    0.0000    
               qcoe:    0.0000    
               qyuk:    0.0000    
               qwid:   0.10000E-01
                rcs:    0.0000      0.0000    
            lambdas:    1.0000      1.0000    
-------------------------------------------------------------------------------
L=0  Nkbl=1  erefs: 0.17977+309
L=1  Nkbl=1  erefs: 0.17977+309
L=2  Nkbl=1  erefs: 0.17977+309
L=3  Nkbl=1  erefs: 0.17977+309
===============================================================================
</basis_specs>

atom: Called for C                     (Z =   6)

read_vps: Pseudopotential generation method:
read_vps: ATM3      Troullier-Martins                       
Total valence charge:    4.00000

xc_check: Exchange-correlation functional:
xc_check: Ceperley-Alder
V l=0 = -2*Zval/r beyond r=  1.5227
V l=1 = -2*Zval/r beyond r=  1.5227
V l=2 = -2*Zval/r beyond r=  1.5227
V l=3 = -2*Zval/r beyond r=  1.5038
All V_l potentials equal beyond r=  1.5227
This should be close to max(r_c) in ps generation
All pots = -2*Zval/r beyond r=  1.5227

VLOCAL1: 99.0% of the norm of Vloc inside     18.722 Ry
VLOCAL1: 99.9% of the norm of Vloc inside     42.668 Ry
atom: Maximum radius for 4*pi*r*r*local-pseudopot. charge    1.83678
atom: Maximum radius for r*vlocal+2*Zval:    1.58088
GHOST: No ghost state for L =  0
GHOST: No ghost state for L =  1
GHOST: No ghost state for L =  2
GHOST: No ghost state for L =  3

KBgen: Kleinman-Bylander projectors: 
   l= 0   rc=  1.747182   el= -1.001948   Ekb=  4.950286   kbcos=  0.319819
   l= 1   rc=  1.747182   el= -0.398598   Ekb= -4.108613   kbcos= -0.367053
   l= 2   rc=  1.930978   el=  0.002326   Ekb= -1.042946   kbcos= -0.009366
   l= 3   rc=  2.055542   el=  0.003420   Ekb= -0.408633   kbcos= -0.001262

KBgen: Total number of  Kleinman-Bylander projectors:   16
atom: -------------------------------------------------------------------------

atom: SANKEY-TYPE ORBITALS:
atom: Selected multiple-zeta basis: split     

SPLIT: Orbitals with angular momentum L= 0

SPLIT: Basis orbitals for state 2s

SPLIT: PAO cut-off radius determined from an
SPLIT: energy shift=  0.020000 Ry

   izeta = 1
                 lambda =    1.000000
                     rc =    4.191849
                 energy =   -0.983897
                kinetic =    0.880927
    potential(screened) =   -1.864824
       potential(ionic) =   -5.475687

   izeta = 2
                 rmatch =    3.431921
              splitnorm =    0.150000
                 energy =   -0.853083
                kinetic =    1.298222
    potential(screened) =   -2.151305
       potential(ionic) =   -5.995890

SPLIT: Orbitals with angular momentum L= 1

SPLIT: Basis orbitals for state 2p

SPLIT: PAO cut-off radius determined from an
SPLIT: energy shift=  0.020000 Ry

   izeta = 1
                 lambda =    1.000000
                     rc =    4.870301
                 energy =   -0.379093
                kinetic =    2.540023
    potential(screened) =   -2.919116
       potential(ionic) =   -6.427960

   izeta = 2
                 rmatch =    3.475094
              splitnorm =    0.150000
                 energy =   -0.215057
                kinetic =    3.814571
    potential(screened) =   -4.029628
       potential(ionic) =   -7.920250

POLgen: Perturbative polarization orbital with L=  2

POLgen: Polarization orbital for state 2p

   izeta = 1
                     rc =    4.870301
                 energy =    1.280996
                kinetic =    2.631310
    potential(screened) =   -1.350314
       potential(ionic) =   -4.295640
atom: Total number of Sankey-type orbitals: 13

atm_pop: Valence configuration (for local Pseudopot. screening):
 2s( 2.00)                                                            
 2p( 2.00)                                                            
Vna: chval, zval:    4.00000   4.00000

Vna:  Cut-off radius for the neutral-atom potential:   4.870301

atom: _________________________________________________________________________

<basis_specs>
===============================================================================
H                    Z=   1    Mass=  1.0100        Charge= 0.17977+309
Lmxo=0 Lmxkb= 2    BasisType=split      Semic=F
L=0  Nsemic=0  Cnfigmx=1
          n=1  nzeta=2  polorb=1
            splnorm:   0.15000    
               vcte:    0.0000    
               rinn:    0.0000    
               qcoe:    0.0000    
               qyuk:    0.0000    
               qwid:   0.10000E-01
                rcs:    0.0000      0.0000    
            lambdas:    1.0000      1.0000    
-------------------------------------------------------------------------------
L=0  Nkbl=1  erefs: 0.17977+309
L=1  Nkbl=1  erefs: 0.17977+309
L=2  Nkbl=1  erefs: 0.17977+309
===============================================================================
</basis_specs>

atom: Called for H                     (Z =   1)

read_vps: Pseudopotential generation method:
read_vps: ATM3      Troullier-Martins                       
Total valence charge:    1.00000

xc_check: Exchange-correlation functional:
xc_check: Ceperley-Alder
V l=0 = -2*Zval/r beyond r=  1.2977
V l=1 = -2*Zval/r beyond r=  1.2815
V l=2 = -2*Zval/r beyond r=  1.1307
All V_l potentials equal beyond r=  1.2977
This should be close to max(r_c) in ps generation
All pots = -2*Zval/r beyond r=  1.2977

VLOCAL1: 99.0% of the norm of Vloc inside     25.776 Ry
VLOCAL1: 99.9% of the norm of Vloc inside     58.745 Ry
atom: Maximum radius for 4*pi*r*r*local-pseudopot. charge    1.52711
atom: Maximum radius for r*vlocal+2*Zval:    1.28155
GHOST: No ghost state for L =  0
GHOST: No ghost state for L =  1
GHOST: No ghost state for L =  2

KBgen: Kleinman-Bylander projectors: 
   l= 0   rc=  1.434438   el= -0.467325   Ekb= -1.940326   kbcos= -0.353040
   l= 1   rc=  1.508111   el=  0.001430   Ekb= -0.480826   kbcos= -0.024144
   l= 2   rc=  1.527112   el=  0.002365   Ekb= -0.479392   kbcos= -0.001656

KBgen: Total number of  Kleinman-Bylander projectors:    9
atom: -------------------------------------------------------------------------

atom: SANKEY-TYPE ORBITALS:
atom: Selected multiple-zeta basis: split     

SPLIT: Orbitals with angular momentum L= 0

SPLIT: Basis orbitals for state 1s

SPLIT: PAO cut-off radius determined from an
SPLIT: energy shift=  0.020000 Ry

   izeta = 1
                 lambda =    1.000000
                     rc =    4.828263
                 energy =   -0.449375
                kinetic =    0.925762
    potential(screened) =   -1.375137
       potential(ionic) =   -1.911235

   izeta = 2
                 rmatch =    3.854947
              splitnorm =    0.150000
                 energy =   -0.336149
                kinetic =    1.498089
    potential(screened) =   -1.834238
       potential(ionic) =   -2.406110

POLgen: Perturbative polarization orbital with L=  1

POLgen: Polarization orbital for state 1s

   izeta = 1
                     rc =    4.828263
                 energy =    0.707053
                kinetic =    1.398668
    potential(screened) =   -0.691614
       potential(ionic) =   -1.171973
atom: Total number of Sankey-type orbitals:  5

atm_pop: Valence configuration (for local Pseudopot. screening):
 1s( 1.00)                                                            
Vna: chval, zval:    1.00000   1.00000

Vna:  Cut-off radius for the neutral-atom potential:   4.828263

atom: _________________________________________________________________________

prinput: Basis input ----------------------------------------------------------

PAO.BasisType split     

%block ChemicalSpeciesLabel
    1    6 C                       # Species index, atomic number, species label
    2    1 H                       # Species index, atomic number, species label
%endblock ChemicalSpeciesLabel

%block PAO.Basis                 # Define Basis set
C                     2                    # Species label, number of l-shells
 n=2   0   2                         # n, l, Nzeta 
   4.192      3.432   
   1.000      1.000   
 n=2   1   2 P   1                   # n, l, Nzeta, Polarization, NzetaPol
   4.870      3.475   
   1.000      1.000   
H                     1                    # Species label, number of l-shells
 n=1   0   2 P   1                   # n, l, Nzeta, Polarization, NzetaPol
   4.828      3.855   
   1.000      1.000   
%endblock PAO.Basis

prinput: ----------------------------------------------------------------------

coor:   Atomic-coordinates input format  =     Cartesian coordinates
coor:                                          (in Angstroms)

siesta: Atomic coordinates (Bohr) and species
siesta:      0.59030   0.53175   1.21509  1        1
siesta:      2.63900   0.13978   1.21509  2        2
siesta:      0.40557   2.60678   1.21509  2        3
siesta:     -0.59030  -0.53175  -1.21509  1        4
siesta:     -2.63900  -0.13978  -1.21509  2        5
siesta:     -0.40557  -2.60678  -1.21509  2        6
siesta:      0.59030   0.53175   6.07547  1        7
siesta:      2.63900   0.13978   6.07547  2        8
siesta:      0.40557   2.60678   6.07547  2        9
siesta:     -0.59030  -0.53175   3.64528  1       10
siesta:     -2.63900  -0.13978   3.64528  2       11
siesta:     -0.40557  -2.60678   3.64528  2       12
siesta:      0.59030   0.53175  10.93585  1       13
siesta:      2.63900   0.13978  10.93585  2       14
siesta:      0.40557   2.60678  10.93585  2       15
siesta:     -0.59030  -0.53175   8.50566  1       16
siesta:     -2.63900  -0.13978   8.50566  2       17
siesta:     -0.40557  -2.60678   8.50566  2       18
siesta:      0.59030   0.53175  15.79623  1       19
siesta:      2.63900   0.13978  15.79623  2       20
siesta:      0.40557   2.60678  15.79623  2       21
siesta:     -0.59030  -0.53175  13.36604  1       22
siesta:     -2.63900  -0.13978  13.36604  2       23
siesta:     -0.40557  -2.60678  13.36604  2       24
siesta:      0.59030   0.53175  20.65660  1       25
siesta:      2.63900   0.13978  20.65660  2       26
siesta:      0.40557   2.60678  20.65660  2       27
siesta:     -0.59030  -0.53175  18.22642  1       28
siesta:     -2.63900  -0.13978  18.22642  2       29
siesta:     -0.40557  -2.60678  18.22642  2       30
siesta:      0.59030   0.53175  25.51698  1       31
siesta:      2.63900   0.13978  25.51698  2       32
siesta:      0.40557   2.60678  25.51698  2       33
siesta:     -0.59030  -0.53175  23.08679  1       34
siesta:     -2.63900  -0.13978  23.08679  2       35
siesta:     -0.40557  -2.60678  23.08679  2       36
siesta:      0.59030   0.53175  30.37736  1       37
siesta:      2.63900   0.13978  30.37736  2       38
siesta:      0.40557   2.60678  30.37736  2       39
siesta:     -0.59030  -0.53175  27.94717  1       40
siesta:     -2.63900  -0.13978  27.94717  2       41
siesta:     -0.40557  -2.60678  27.94717  2       42
siesta:      0.59030   0.53175  35.23774  1       43
siesta:      2.63900   0.13978  35.23774  2       44
siesta:      0.40557   2.60678  35.23774  2       45
siesta:     -0.59030  -0.53175  32.80755  1       46
siesta:     -2.63900  -0.13978  32.80755  2       47
siesta:     -0.40557  -2.60678  32.80755  2       48
siesta:      0.59030   0.53175  40.09811  1       49
siesta:      2.63900   0.13978  40.09811  2       50
siesta:      0.40557   2.60678  40.09811  2       51
siesta:     -0.59030  -0.53175  37.66793  1       52
siesta:     -2.63900  -0.13978  37.66793  2       53
siesta:     -0.40557  -2.60678  37.66793  2       54
siesta:      0.59030   0.53175  44.95849  1       55
siesta:      2.63900   0.13978  44.95849  2       56
siesta:      0.40557   2.60678  44.95849  2       57
siesta:     -0.59030  -0.53175  42.52830  1       58
siesta:     -2.63900  -0.13978  42.52830  2       59
siesta:     -0.40557  -2.60678  42.52830  2       60
siesta:      0.59030   0.53175  49.81887  1       61
siesta:      2.63900   0.13978  49.81887  2       62
siesta:      0.40557   2.60678  49.81887  2       63
siesta:     -0.59030  -0.53175  47.38868  1       64
siesta:     -2.63900  -0.13978  47.38868  2       65
siesta:     -0.40557  -2.60678  47.38868  2       66
siesta:      0.59030   0.53175  54.67925  1       67
siesta:      2.63900   0.13978  54.67925  2       68
siesta:      0.40557   2.60678  54.67925  2       69
siesta:     -0.59030  -0.53175  52.24906  1       70
siesta:     -2.63900  -0.13978  52.24906  2       71
siesta:     -0.40557  -2.60678  52.24906  2       72
siesta:      0.59030   0.53175  59.53962  1       73
siesta:      2.63900   0.13978  59.53962  2       74
siesta:      0.40557   2.60678  59.53962  2       75
siesta:     -0.59030  -0.53175  57.10944  1       76
siesta:     -2.63900  -0.13978  57.10944  2       77
siesta:     -0.40557  -2.60678  57.10944  2       78
siesta:      0.59030   0.53175  64.40000  1       79
siesta:      2.63900   0.13978  64.40000  2       80
siesta:      0.40557   2.60678  64.40000  2       81
siesta:     -0.59030  -0.53175  61.96981  1       82
siesta:     -2.63900  -0.13978  61.96981  2       83
siesta:     -0.40557  -2.60678  61.96981  2       84
siesta:      0.59030   0.53175  69.26038  1       85
siesta:      2.63900   0.13978  69.26038  2       86
siesta:      0.40557   2.60678  69.26038  2       87
siesta:     -0.59030  -0.53175  66.83019  1       88
siesta:     -2.63900  -0.13978  66.83019  2       89
siesta:     -0.40557  -2.60678  66.83019  2       90
siesta:      0.59030   0.53175  74.12076  1       91
siesta:      2.63900   0.13978  74.12076  2       92
siesta:      0.40557   2.60678  74.12076  2       93
siesta:     -0.59030  -0.53175  71.69057  1       94
siesta:     -2.63900  -0.13978  71.69057  2       95
siesta:     -0.40557  -2.60678  71.69057  2       96
siesta:      0.59030   0.53175  78.98113  1       97
siesta:      2.63900   0.13978  78.98113  2       98
siesta:      0.40557   2.60678  78.98113  2       99
siesta:     -0.59030  -0.53175  76.55095  1      100
siesta:     -2.63900  -0.13978  76.55095  2      101
siesta:     -0.40557  -2.60678  76.55095  2      102
siesta:      0.59030   0.53175  83.84151  1      103
siesta:      2.63900   0.13978  83.84151  2      104
siesta:      0.40557   2.60678  83.84151  2      105
siesta:     -0.59030  -0.53175  81.41132  1      106
siesta:     -2.63900  -0.13978  81.41132  2      107
siesta:     -0.40557  -2.60678  81.41132  2      108
siesta:      0.59030   0.53175  88.70189  1      109
siesta:      2.63900   0.13978  88.70189  2      110
siesta:      0.40557   2.60678  88.70189  2      111
siesta:     -0.59030  -0.53175  86.27170  1      112
siesta:     -2.63900  -0.13978  86.27170  2      113
siesta:     -0.40557  -2.60678  86.27170  2      114
siesta:      0.59030   0.53175  93.56227  1      115
siesta:      2.63900   0.13978  93.56227  2      116
siesta:      0.40557   2.60678  93.56227  2      117
siesta:     -0.59030  -0.53175  91.13208  1      118
siesta:     -2.63900  -0.13978  91.13208  2      119
siesta:     -0.40557  -2.60678  91.13208  2      120
siesta:      0.59030   0.53175  98.42264  1      121
siesta:      2.63900   0.13978  98.42264  2      122
siesta:      0.40557   2.60678  98.42264  2      123
siesta:     -0.59030  -0.53175  95.99246  1      124
siesta:     -2.63900  -0.13978  95.99246  2      125
siesta:     -0.40557  -2.60678  95.99246  2      126
siesta:      0.59030   0.53175 103.28302  1      127
siesta:      2.63900   0.13978 103.28302  2      128
siesta:      0.40557   2.60678 103.28302  2      129
siesta:     -0.59030  -0.53175 100.85283  1      130
siesta:     -2.63900  -0.13978 100.85283  2      131
siesta:     -0.40557  -2.60678 100.85283  2      132
siesta:      0.59030   0.53175 108.14340  1      133
siesta:      2.63900   0.13978 108.14340  2      134
siesta:      0.40557   2.60678 108.14340  2      135
siesta:     -0.59030  -0.53175 105.71321  1      136
siesta:     -2.63900  -0.13978 105.71321  2      137
siesta:     -0.40557  -2.60678 105.71321  2      138
siesta:      0.59030   0.53175 113.00378  1      139
siesta:      2.63900   0.13978 113.00378  2      140
siesta:      0.40557   2.60678 113.00378  2      141
siesta:     -0.59030  -0.53175 110.57359  1      142
siesta:     -2.63900  -0.13978 110.57359  2      143
siesta:     -0.40557  -2.60678 110.57359  2      144
siesta:      0.59030   0.53175 117.86416  1      145
siesta:      2.63900   0.13978 117.86416  2      146
siesta:      0.40557   2.60678 117.86416  2      147
siesta:     -0.59030  -0.53175 115.43397  1      148
siesta:     -2.63900  -0.13978 115.43397  2      149
siesta:     -0.40557  -2.60678 115.43397  2      150
siesta:      0.59030   0.53175 122.72453  1      151
siesta:      2.63900   0.13978 122.72453  2      152
siesta:      0.40557   2.60678 122.72453  2      153
siesta:     -0.59030  -0.53175 120.29434  1      154
siesta:     -2.63900  -0.13978 120.29434  2      155
siesta:     -0.40557  -2.60678 120.29434  2      156
siesta:      0.59030   0.53175 127.58491  1      157
siesta:      2.63900   0.13978 127.58491  2      158
siesta:      0.40557   2.60678 127.58491  2      159
siesta:     -0.59030  -0.53175 125.15472  1      160
siesta:     -2.63900  -0.13978 125.15472  2      161
siesta:     -0.40557  -2.60678 125.15472  2      162
siesta:      0.59030   0.53175 132.44529  1      163
siesta:      2.63900   0.13978 132.44529  2      164
siesta:      0.40557   2.60678 132.44529  2      165
siesta:     -0.59030  -0.53175 130.01510  1      166
siesta:     -2.63900  -0.13978 130.01510  2      167
siesta:     -0.40557  -2.60678 130.01510  2      168
siesta:      0.59030   0.53175 137.30567  1      169
siesta:      2.63900   0.13978 137.30567  2      170
siesta:      0.40557   2.60678 137.30567  2      171
siesta:     -0.59030  -0.53175 134.87548  1      172
siesta:     -2.63900  -0.13978 134.87548  2      173
siesta:     -0.40557  -2.60678 134.87548  2      174
siesta:      0.59030   0.53175 142.16604  1      175
siesta:      2.63900   0.13978 142.16604  2      176
siesta:      0.40557   2.60678 142.16604  2      177
siesta:     -0.59030  -0.53175 139.73585  1      178
siesta:     -2.63900  -0.13978 139.73585  2      179
siesta:     -0.40557  -2.60678 139.73585  2      180
siesta:      0.59030   0.53175 147.02642  1      181
siesta:      2.63900   0.13978 147.02642  2      182
siesta:      0.40557   2.60678 147.02642  2      183
siesta:     -0.59030  -0.53175 144.59623  1      184
siesta:     -2.63900  -0.13978 144.59623  2      185
siesta:     -0.40557  -2.60678 144.59623  2      186
siesta:      0.59030   0.53175 151.88680  1      187
siesta:      2.63900   0.13978 151.88680  2      188
siesta:      0.40557   2.60678 151.88680  2      189
siesta:     -0.59030  -0.53175 149.45661  1      190
siesta:     -2.63900  -0.13978 149.45661  2      191
siesta:     -0.40557  -2.60678 149.45661  2      192
siesta:      0.59030   0.53175 156.74718  1      193
siesta:      2.63900   0.13978 156.74718  2      194
siesta:      0.40557   2.60678 156.74718  2      195
siesta:     -0.59030  -0.53175 154.31699  1      196
siesta:     -2.63900  -0.13978 154.31699  2      197
siesta:     -0.40557  -2.60678 154.31699  2      198
siesta:      0.59030   0.53175 161.60755  1      199
siesta:      2.63900   0.13978 161.60755  2      200
siesta:      0.40557   2.60678 161.60755  2      201
siesta:     -0.59030  -0.53175 159.17736  1      202
siesta:     -2.63900  -0.13978 159.17736  2      203
siesta:     -0.40557  -2.60678 159.17736  2      204
siesta:      0.59030   0.53175 166.46793  1      205
siesta:      2.63900   0.13978 166.46793  2      206
siesta:      0.40557   2.60678 166.46793  2      207
siesta:     -0.59030  -0.53175 164.03774  1      208
siesta:     -2.63900  -0.13978 164.03774  2      209
siesta:     -0.40557  -2.60678 164.03774  2      210
siesta:      0.59030   0.53175 171.32831  1      211
siesta:      2.63900   0.13978 171.32831  2      212
siesta:      0.40557   2.60678 171.32831  2      213
siesta:     -0.59030  -0.53175 168.89812  1      214
siesta:     -2.63900  -0.13978 168.89812  2      215
siesta:     -0.40557  -2.60678 168.89812  2      216
siesta:      0.59030   0.53175 176.18869  1      217
siesta:      2.63900   0.13978 176.18869  2      218
siesta:      0.40557   2.60678 176.18869  2      219
siesta:     -0.59030  -0.53175 173.75850  1      220
siesta:     -2.63900  -0.13978 173.75850  2      221
siesta:     -0.40557  -2.60678 173.75850  2      222
siesta:      0.59030   0.53175 181.04906  1      223
siesta:      2.63900   0.13978 181.04906  2      224
siesta:      0.40557   2.60678 181.04906  2      225
siesta:     -0.59030  -0.53175 178.61887  1      226
siesta:     -2.63900  -0.13978 178.61887  2      227
siesta:     -0.40557  -2.60678 178.61887  2      228
siesta:      0.59030   0.53175 185.90944  1      229
siesta:      2.63900   0.13978 185.90944  2      230
siesta:      0.40557   2.60678 185.90944  2      231
siesta:     -0.59030  -0.53175 183.47925  1      232
siesta:     -2.63900  -0.13978 183.47925  2      233
siesta:     -0.40557  -2.60678 183.47925  2      234
siesta:      0.59030   0.53175 190.76982  1      235
siesta:      2.63900   0.13978 190.76982  2      236
siesta:      0.40557   2.60678 190.76982  2      237
siesta:     -0.59030  -0.53175 188.33963  1      238
siesta:     -2.63900  -0.13978 188.33963  2      239
siesta:     -0.40557  -2.60678 188.33963  2      240
siesta:      0.59030   0.53175 195.63020  1      241
siesta:      2.63900   0.13978 195.63020  2      242
siesta:      0.40557   2.60678 195.63020  2      243
siesta:     -0.59030  -0.53175 193.20001  1      244
siesta:     -2.63900  -0.13978 193.20001  2      245
siesta:     -0.40557  -2.60678 193.20001  2      246
siesta:      0.59030   0.53175 200.49057  1      247
siesta:      2.63900   0.13978 200.49057  2      248
siesta:      0.40557   2.60678 200.49057  2      249
siesta:     -0.59030  -0.53175 198.06038  1      250
siesta:     -2.63900  -0.13978 198.06038  2      251
siesta:     -0.40557  -2.60678 198.06038  2      252
siesta:      0.59030   0.53175 205.35095  1      253
siesta:      2.63900   0.13978 205.35095  2      254
siesta:      0.40557   2.60678 205.35095  2      255
siesta:     -0.59030  -0.53175 202.92076  1      256
siesta:     -2.63900  -0.13978 202.92076  2      257
siesta:     -0.40557  -2.60678 202.92076  2      258
siesta:      0.59030   0.53175 210.21133  1      259
siesta:      2.63900   0.13978 210.21133  2      260
siesta:      0.40557   2.60678 210.21133  2      261
siesta:     -0.59030  -0.53175 207.78114  1      262
siesta:     -2.63900  -0.13978 207.78114  2      263
siesta:     -0.40557  -2.60678 207.78114  2      264
siesta:      0.59030   0.53175 215.07171  1      265
siesta:      2.63900   0.13978 215.07171  2      266
siesta:      0.40557   2.60678 215.07171  2      267
siesta:     -0.59030  -0.53175 212.64152  1      268
siesta:     -2.63900  -0.13978 212.64152  2      269
siesta:     -0.40557  -2.60678 212.64152  2      270
siesta:      0.59030   0.53175 219.93208  1      271
siesta:      2.63900   0.13978 219.93208  2      272
siesta:      0.40557   2.60678 219.93208  2      273
siesta:     -0.59030  -0.53175 217.50189  1      274
siesta:     -2.63900  -0.13978 217.50189  2      275
siesta:     -0.40557  -2.60678 217.50189  2      276
siesta:      0.59030   0.53175 224.79246  1      277
siesta:      2.63900   0.13978 224.79246  2      278
siesta:      0.40557   2.60678 224.79246  2      279
siesta:     -0.59030  -0.53175 222.36227  1      280
siesta:     -2.63900  -0.13978 222.36227  2      281
siesta:     -0.40557  -2.60678 222.36227  2      282
siesta:      0.59030   0.53175 229.65284  1      283
siesta:      2.63900   0.13978 229.65284  2      284
siesta:      0.40557   2.60678 229.65284  2      285
siesta:     -0.59030  -0.53175 227.22265  1      286
siesta:     -2.63900  -0.13978 227.22265  2      287
siesta:     -0.40557  -2.60678 227.22265  2      288
siesta:      0.59030   0.53175 234.51322  1      289
siesta:      2.63900   0.13978 234.51322  2      290
siesta:      0.40557   2.60678 234.51322  2      291
siesta:     -0.59030  -0.53175 232.08303  1      292
siesta:     -2.63900  -0.13978 232.08303  2      293
siesta:     -0.40557  -2.60678 232.08303  2      294
siesta:      0.59030   0.53175 239.37359  1      295
siesta:      2.63900   0.13978 239.37359  2      296
siesta:      0.40557   2.60678 239.37359  2      297
siesta:     -0.59030  -0.53175 236.94340  1      298
siesta:     -2.63900  -0.13978 236.94340  2      299
siesta:     -0.40557  -2.60678 236.94340  2      300
siesta:      0.59030   0.53175 244.23397  1      301
siesta:      2.63900   0.13978 244.23397  2      302
siesta:      0.40557   2.60678 244.23397  2      303
siesta:     -0.59030  -0.53175 241.80378  1      304
siesta:     -2.63900  -0.13978 241.80378  2      305
siesta:     -0.40557  -2.60678 241.80378  2      306
siesta:      0.59030   0.53175 249.09435  1      307
siesta:      2.63900   0.13978 249.09435  2      308
siesta:      0.40557   2.60678 249.09435  2      309
siesta:     -0.59030  -0.53175 246.66416  1      310
siesta:     -2.63900  -0.13978 246.66416  2      311
siesta:     -0.40557  -2.60678 246.66416  2      312
siesta:      0.59030   0.53175 253.95473  1      313
siesta:      2.63900   0.13978 253.95473  2      314
siesta:      0.40557   2.60678 253.95473  2      315
siesta:     -0.59030  -0.53175 251.52454  1      316
siesta:     -2.63900  -0.13978 251.52454  2      317
siesta:     -0.40557  -2.60678 251.52454  2      318
siesta:      0.59030   0.53175 258.81510  1      319
siesta:      2.63900   0.13978 258.81510  2      320
siesta:      0.40557   2.60678 258.81510  2      321
siesta:     -0.59030  -0.53175 256.38491  1      322
siesta:     -2.63900  -0.13978 256.38491  2      323
siesta:     -0.40557  -2.60678 256.38491  2      324
siesta:      0.59030   0.53175 263.67548  1      325
siesta:      2.63900   0.13978 263.67548  2      326
siesta:      0.40557   2.60678 263.67548  2      327
siesta:     -0.59030  -0.53175 261.24529  1      328
siesta:     -2.63900  -0.13978 261.24529  2      329
siesta:     -0.40557  -2.60678 261.24529  2      330
siesta:      0.59030   0.53175 268.53586  1      331
siesta:      2.63900   0.13978 268.53586  2      332
siesta:      0.40557   2.60678 268.53586  2      333
siesta:     -0.59030  -0.53175 266.10567  1      334
siesta:     -2.63900  -0.13978 266.10567  2      335
siesta:     -0.40557  -2.60678 266.10567  2      336
siesta:      0.59030   0.53175 273.39624  1      337
siesta:      2.63900   0.13978 273.39624  2      338
siesta:      0.40557   2.60678 273.39624  2      339
siesta:     -0.59030  -0.53175 270.96605  1      340
siesta:     -2.63900  -0.13978 270.96605  2      341
siesta:     -0.40557  -2.60678 270.96605  2      342
siesta:      0.59030   0.53175 278.25661  1      343
siesta:      2.63900   0.13978 278.25661  2      344
siesta:      0.40557   2.60678 278.25661  2      345
siesta:     -0.59030  -0.53175 275.82642  1      346
siesta:     -2.63900  -0.13978 275.82642  2      347
siesta:     -0.40557  -2.60678 275.82642  2      348
siesta:      0.59030   0.53175 283.11699  1      349
siesta:      2.63900   0.13978 283.11699  2      350
siesta:      0.40557   2.60678 283.11699  2      351
siesta:     -0.59030  -0.53175 280.68680  1      352
siesta:     -2.63900  -0.13978 280.68680  2      353
siesta:     -0.40557  -2.60678 280.68680  2      354
siesta:      0.59030   0.53175 287.97737  1      355
siesta:      2.63900   0.13978 287.97737  2      356
siesta:      0.40557   2.60678 287.97737  2      357
siesta:     -0.59030  -0.53175 285.54718  1      358
siesta:     -2.63900  -0.13978 285.54718  2      359
siesta:     -0.40557  -2.60678 285.54718  2      360
siesta:      0.59030   0.53175 292.83775  1      361
siesta:      2.63900   0.13978 292.83775  2      362
siesta:      0.40557   2.60678 292.83775  2      363
siesta:     -0.59030  -0.53175 290.40756  1      364
siesta:     -2.63900  -0.13978 290.40756  2      365
siesta:     -0.40557  -2.60678 290.40756  2      366
siesta:      0.59030   0.53175 297.69812  1      367
siesta:      2.63900   0.13978 297.69812  2      368
siesta:      0.40557   2.60678 297.69812  2      369
siesta:     -0.59030  -0.53175 295.26793  1      370
siesta:     -2.63900  -0.13978 295.26793  2      371
siesta:     -0.40557  -2.60678 295.26793  2      372
siesta:      0.59030   0.53175 302.55850  1      373
siesta:      2.63900   0.13978 302.55850  2      374
siesta:      0.40557   2.60678 302.55850  2      375
siesta:     -0.59030  -0.53175 300.12831  1      376
siesta:     -2.63900  -0.13978 300.12831  2      377
siesta:     -0.40557  -2.60678 300.12831  2      378
siesta:      0.59030   0.53175 307.41888  1      379
siesta:      2.63900   0.13978 307.41888  2      380
siesta:      0.40557   2.60678 307.41888  2      381
siesta:     -0.59030  -0.53175 304.98869  1      382
siesta:     -2.63900  -0.13978 304.98869  2      383
siesta:     -0.40557  -2.60678 304.98869  2      384

siesta: System type = chain     

initatomlists: Number of atoms, orbitals, and projectors:    384  2944  4352

siesta: ******************** Simulation parameters ****************************
siesta:
siesta: The following are some of the parameters of the simulation.
siesta: A complete list of the parameters used, including default values,
siesta: can be found in file out.fdf
siesta:
redata: Non-Collinear-spin run           =     F
redata: SpinPolarized (Up/Down) run      =     F
redata: Number of spin components        =     1
redata: Long output                      =     F
redata: Number of Atomic Species         =        2
redata: Charge density info will appear in .RHO file
redata: Write Mulliken Pop.              =     NO
redata: Mesh Cutoff                      =   100.0000  Ry
redata: Net charge of the system         =     0.0000 |e|
redata: Min. number of SCF Iter          =        0
redata: Max. number of SCF Iter          =       50
redata: Mix DM or H after convergence    =     F
redata: Recompute H after scf cycle      =     F
redata: Performing Pulay mixing using    =     3 iterations
redata: Mix DM in first SCF step ?       =     F
redata: Write Pulay info on disk?        =     F
redata: Discard 1st Pulay DM after  kick =     F
redata: New DM Mixing Weight             =     0.3000
redata: New DM Occupancy tolerance       = 0.000000000001
redata: No kicks to SCF
redata: DM Mixing Weight for Kicks       =     0.5000
redata: DM Tolerance for SCF             =     0.000100
redata: Require (free) Energy convergence in SCF =     F
redata: DM (free)Energy tolerance for SCF =     0.000010 eV
redata: Require Harris convergence for SCF =     F
redata: DM Harris energy tolerance for SCF =     0.000010 eV
redata: Using Saved Data (generic)   =     F
redata: Use continuation files for DM    =     F
redata: Neglect nonoverlap interactions  =     F
redata: Method of Calculation            =     QETSc
redata: Fix the spin of the system       =     F
redata: Dynamics option                  =     Single-point calculation
redata: ***********************************************************************
Total number of electrons:   768.000000
Total ionic charge:   768.000000

* ProcessorY, Blocksize:   16   6


* Orbital distribution balance (max,min):     6     0

 Kpoints in:  1 . Kpoints trimmed:  1

siesta: k-grid: Number of k-points =     1
siesta: k-grid: Cutoff (effective) =    10.000 Ang
siesta: k-grid: Supercell and displacements
siesta: k-grid:    1   0   0      0.000
siesta: k-grid:    0   1   0      0.000
siesta: k-grid:    0   0   1      0.000

                     ====================================
                        Single-point calculation
                     ====================================

outcell: Unit cell vectors (Ang):
       20.000000    0.000000    0.000000
        0.000000   20.000000    0.000000
        0.000000    0.000000  164.608000

outcell: Cell vector modules (Ang)   :   20.000000   20.000000  164.608000
outcell: Cell angles (23,13,12) (deg):     90.0000     90.0000     90.0000
outcell: Cell volume (Ang**3)        :  65843.2000
New_DM. Step:     1
Initializing Density Matrix...
New grid distribution:   1
           1       1:   64    1:    4    1:   16
           2       1:   64    1:    4   17:   32
           3       1:   64    1:    4   33:   48
           4       1:   64    1:    4   49:   64
           5       1:   64    1:    4   65:   80
           6       1:   64    1:    4   81:   96
           7       1:   64    1:    4   97:  112
           8       1:   64    1:    4  113:  128
           9       1:   64    1:    4  129:  144
          10       1:   64    1:    4  145:  160
          11       1:   64    1:    4  161:  176
          12       1:   64    1:    4  177:  192
          13       1:   64    1:    4  193:  208
          14       1:   64    1:    4  209:  224
          15       1:   64    1:    4  225:  240
          16       1:   64    1:    4  241:  256
          17       1:   64    1:    4  257:  272
          18       1:   64    1:    4  273:  288
          19       1:   64    1:    4  289:  304
          20       1:   64    1:    4  305:  320
          21       1:   64    1:    4  321:  335
          22       1:   64    1:    4  336:  350
          23       1:   64    1:    4  351:  365
          24       1:   64    1:    4  366:  380
          25       1:   64    1:    4  381:  395
          26       1:   64    1:    4  396:  410
          27       1:   64    1:    4  411:  425
          28       1:   64    1:    4  426:  440
          29       1:   64    1:    4  441:  455
          30       1:   64    1:    4  456:  470
          31       1:   64    1:    4  471:  485
          32       1:   64    1:    4  486:  500
          33       1:   64    5:    8    1:   16
          34       1:   64    5:    8   17:   32
          35       1:   64    5:    8   33:   48
          36       1:   64    5:    8   49:   64
          37       1:   64    5:    8   65:   80
          38       1:   64    5:    8   81:   96
          39       1:   64    5:    8   97:  112
          40       1:   64    5:    8  113:  128
          41       1:   64    5:    8  129:  144
          42       1:   64    5:    8  145:  160
          43       1:   64    5:    8  161:  176
          44       1:   64    5:    8  177:  192
          45       1:   64    5:    8  193:  208
          46       1:   64    5:    8  209:  224
          47       1:   64    5:    8  225:  240
          48       1:   64    5:    8  241:  256
          49       1:   64    5:    8  257:  272
          50       1:   64    5:    8  273:  288
          51       1:   64    5:    8  289:  304
          52       1:   64    5:    8  305:  320
          53       1:   64    5:    8  321:  335
          54       1:   64    5:    8  336:  350
          55       1:   64    5:    8  351:  365
          56       1:   64    5:    8  366:  380
          57       1:   64    5:    8  381:  395
          58       1:   64    5:    8  396:  410
          59       1:   64    5:    8  411:  425
          60       1:   64    5:    8  426:  440
          61       1:   64    5:    8  441:  455
          62       1:   64    5:    8  456:  470
          63       1:   64    5:    8  471:  485
          64       1:   64    5:    8  486:  500
          65       1:   64    9:   12    1:   16
          66       1:   64    9:   12   17:   32
          67       1:   64    9:   12   33:   48
          68       1:   64    9:   12   49:   64
          69       1:   64    9:   12   65:   80
          70       1:   64    9:   12   81:   96
          71       1:   64    9:   12   97:  112
          72       1:   64    9:   12  113:  128
          73       1:   64    9:   12  129:  144
          74       1:   64    9:   12  145:  160
          75       1:   64    9:   12  161:  176
          76       1:   64    9:   12  177:  192
          77       1:   64    9:   12  193:  208
          78       1:   64    9:   12  209:  224
          79       1:   64    9:   12  225:  240
          80       1:   64    9:   12  241:  256
          81       1:   64    9:   12  257:  272
          82       1:   64    9:   12  273:  288
          83       1:   64    9:   12  289:  304
          84       1:   64    9:   12  305:  320
          85       1:   64    9:   12  321:  335
          86       1:   64    9:   12  336:  350
          87       1:   64    9:   12  351:  365
          88       1:   64    9:   12  366:  380
          89       1:   64    9:   12  381:  395
          90       1:   64    9:   12  396:  410
          91       1:   64    9:   12  411:  425
          92       1:   64    9:   12  426:  440
          93       1:   64    9:   12  441:  455
          94       1:   64    9:   12  456:  470
          95       1:   64    9:   12  471:  485
          96       1:   64    9:   12  486:  500
          97       1:   64   13:   16    1:   16
          98       1:   64   13:   16   17:   32
          99       1:   64   13:   16   33:   48
         100       1:   64   13:   16   49:   64
         101       1:   64   13:   16   65:   80
         102       1:   64   13:   16   81:   96
         103       1:   64   13:   16   97:  112
         104       1:   64   13:   16  113:  128
         105       1:   64   13:   16  129:  144
         106       1:   64   13:   16  145:  160
         107       1:   64   13:   16  161:  176
         108       1:   64   13:   16  177:  192
         109       1:   64   13:   16  193:  208
         110       1:   64   13:   16  209:  224
         111       1:   64   13:   16  225:  240
         112       1:   64   13:   16  241:  256
         113       1:   64   13:   16  257:  272
         114       1:   64   13:   16  273:  288
         115       1:   64   13:   16  289:  304
         116       1:   64   13:   16  305:  320
         117       1:   64   13:   16  321:  335
         118       1:   64   13:   16  336:  350
         119       1:   64   13:   16  351:  365
         120       1:   64   13:   16  366:  380
         121       1:   64   13:   16  381:  395
         122       1:   64   13:   16  396:  410
         123       1:   64   13:   16  411:  425
         124       1:   64   13:   16  426:  440
         125       1:   64   13:   16  441:  455
         126       1:   64   13:   16  456:  470
         127       1:   64   13:   16  471:  485
         128       1:   64   13:   16  486:  500
         129       1:   64   17:   20    1:   16
         130       1:   64   17:   20   17:   32
         131       1:   64   17:   20   33:   48
         132       1:   64   17:   20   49:   64
         133       1:   64   17:   20   65:   80
         134       1:   64   17:   20   81:   96
         135       1:   64   17:   20   97:  112
         136       1:   64   17:   20  113:  128
         137       1:   64   17:   20  129:  144
         138       1:   64   17:   20  145:  160
         139       1:   64   17:   20  161:  176
         140       1:   64   17:   20  177:  192
         141       1:   64   17:   20  193:  208
         142       1:   64   17:   20  209:  224
         143       1:   64   17:   20  225:  240
         144       1:   64   17:   20  241:  256
         145       1:   64   17:   20  257:  272
         146       1:   64   17:   20  273:  288
         147       1:   64   17:   20  289:  304
         148       1:   64   17:   20  305:  320
         149       1:   64   17:   20  321:  335
         150       1:   64   17:   20  336:  350
         151       1:   64   17:   20  351:  365
         152       1:   64   17:   20  366:  380
         153       1:   64   17:   20  381:  395
         154       1:   64   17:   20  396:  410
         155       1:   64   17:   20  411:  425
         156       1:   64   17:   20  426:  440
         157       1:   64   17:   20  441:  455
         158       1:   64   17:   20  456:  470
         159       1:   64   17:   20  471:  485
         160       1:   64   17:   20  486:  500
         161       1:   64   21:   24    1:   16
         162       1:   64   21:   24   17:   32
         163       1:   64   21:   24   33:   48
         164       1:   64   21:   24   49:   64
         165       1:   64   21:   24   65:   80
         166       1:   64   21:   24   81:   96
         167       1:   64   21:   24   97:  112
         168       1:   64   21:   24  113:  128
         169       1:   64   21:   24  129:  144
         170       1:   64   21:   24  145:  160
         171       1:   64   21:   24  161:  176
         172       1:   64   21:   24  177:  192
         173       1:   64   21:   24  193:  208
         174       1:   64   21:   24  209:  224
         175       1:   64   21:   24  225:  240
         176       1:   64   21:   24  241:  256
         177       1:   64   21:   24  257:  272
         178       1:   64   21:   24  273:  288
         179       1:   64   21:   24  289:  304
         180       1:   64   21:   24  305:  320
         181       1:   64   21:   24  321:  335
         182       1:   64   21:   24  336:  350
         183       1:   64   21:   24  351:  365
         184       1:   64   21:   24  366:  380
         185       1:   64   21:   24  381:  395
         186       1:   64   21:   24  396:  410
         187       1:   64   21:   24  411:  425
         188       1:   64   21:   24  426:  440
         189       1:   64   21:   24  441:  455
         190       1:   64   21:   24  456:  470
         191       1:   64   21:   24  471:  485
         192       1:   64   21:   24  486:  500
         193       1:   64   25:   28    1:   16
         194       1:   64   25:   28   17:   32
         195       1:   64   25:   28   33:   48
         196       1:   64   25:   28   49:   64
         197       1:   64   25:   28   65:   80
         198       1:   64   25:   28   81:   96
         199       1:   64   25:   28   97:  112
         200       1:   64   25:   28  113:  128
         201       1:   64   25:   28  129:  144
         202       1:   64   25:   28  145:  160
         203       1:   64   25:   28  161:  176
         204       1:   64   25:   28  177:  192
         205       1:   64   25:   28  193:  208
         206       1:   64   25:   28  209:  224
         207       1:   64   25:   28  225:  240
         208       1:   64   25:   28  241:  256
         209       1:   64   25:   28  257:  272
         210       1:   64   25:   28  273:  288
         211       1:   64   25:   28  289:  304
         212       1:   64   25:   28  305:  320
         213       1:   64   25:   28  321:  335
         214       1:   64   25:   28  336:  350
         215       1:   64   25:   28  351:  365
         216       1:   64   25:   28  366:  380
         217       1:   64   25:   28  381:  395
         218       1:   64   25:   28  396:  410
         219       1:   64   25:   28  411:  425
         220       1:   64   25:   28  426:  440
         221       1:   64   25:   28  441:  455
         222       1:   64   25:   28  456:  470
         223       1:   64   25:   28  471:  485
         224       1:   64   25:   28  486:  500
         225       1:   64   29:   32    1:   16
         226       1:   64   29:   32   17:   32
         227       1:   64   29:   32   33:   48
         228       1:   64   29:   32   49:   64
         229       1:   64   29:   32   65:   80
         230       1:   64   29:   32   81:   96
         231       1:   64   29:   32   97:  112
         232       1:   64   29:   32  113:  128
         233       1:   64   29:   32  129:  144
         234       1:   64   29:   32  145:  160
         235       1:   64   29:   32  161:  176
         236       1:   64   29:   32  177:  192
         237       1:   64   29:   32  193:  208
         238       1:   64   29:   32  209:  224
         239       1:   64   29:   32  225:  240
         240       1:   64   29:   32  241:  256
         241       1:   64   29:   32  257:  272
         242       1:   64   29:   32  273:  288
         243       1:   64   29:   32  289:  304
         244       1:   64   29:   32  305:  320
         245       1:   64   29:   32  321:  335
         246       1:   64   29:   32  336:  350
         247       1:   64   29:   32  351:  365
         248       1:   64   29:   32  366:  380
         249       1:   64   29:   32  381:  395
         250       1:   64   29:   32  396:  410
         251       1:   64   29:   32  411:  425
         252       1:   64   29:   32  426:  440
         253       1:   64   29:   32  441:  455
         254       1:   64   29:   32  456:  470
         255       1:   64   29:   32  471:  485
         256       1:   64   29:   32  486:  500
         257       1:   64   33:   36    1:   16
         258       1:   64   33:   36   17:   32
         259       1:   64   33:   36   33:   48
         260       1:   64   33:   36   49:   64
         261       1:   64   33:   36   65:   80
         262       1:   64   33:   36   81:   96
         263       1:   64   33:   36   97:  112
         264       1:   64   33:   36  113:  128
         265       1:   64   33:   36  129:  144
         266       1:   64   33:   36  145:  160
         267       1:   64   33:   36  161:  176
         268       1:   64   33:   36  177:  192
         269       1:   64   33:   36  193:  208
         270       1:   64   33:   36  209:  224
         271       1:   64   33:   36  225:  240
         272       1:   64   33:   36  241:  256
         273       1:   64   33:   36  257:  272
         274       1:   64   33:   36  273:  288
         275       1:   64   33:   36  289:  304
         276       1:   64   33:   36  305:  320
         277       1:   64   33:   36  321:  335
         278       1:   64   33:   36  336:  350
         279       1:   64   33:   36  351:  365
         280       1:   64   33:   36  366:  380
         281       1:   64   33:   36  381:  395
         282       1:   64   33:   36  396:  410
         283       1:   64   33:   36  411:  425
         284       1:   64   33:   36  426:  440
         285       1:   64   33:   36  441:  455
         286       1:   64   33:   36  456:  470
         287       1:   64   33:   36  471:  485
         288       1:   64   33:   36  486:  500
         289       1:   64   37:   40    1:   16
         290       1:   64   37:   40   17:   32
         291       1:   64   37:   40   33:   48
         292       1:   64   37:   40   49:   64
         293       1:   64   37:   40   65:   80
         294       1:   64   37:   40   81:   96
         295       1:   64   37:   40   97:  112
         296       1:   64   37:   40  113:  128
         297       1:   64   37:   40  129:  144
         298       1:   64   37:   40  145:  160
         299       1:   64   37:   40  161:  176
         300       1:   64   37:   40  177:  192
         301       1:   64   37:   40  193:  208
         302       1:   64   37:   40  209:  224
         303       1:   64   37:   40  225:  240
         304       1:   64   37:   40  241:  256
         305       1:   64   37:   40  257:  272
         306       1:   64   37:   40  273:  288
         307       1:   64   37:   40  289:  304
         308       1:   64   37:   40  305:  320
         309       1:   64   37:   40  321:  335
         310       1:   64   37:   40  336:  350
         311       1:   64   37:   40  351:  365
         312       1:   64   37:   40  366:  380
         313       1:   64   37:   40  381:  395
         314       1:   64   37:   40  396:  410
         315       1:   64   37:   40  411:  425
         316       1:   64   37:   40  426:  440
         317       1:   64   37:   40  441:  455
         318       1:   64   37:   40  456:  470
         319       1:   64   37:   40  471:  485
         320       1:   64   37:   40  486:  500
         321       1:   64   41:   44    1:   16
         322       1:   64   41:   44   17:   32
         323       1:   64   41:   44   33:   48
         324       1:   64   41:   44   49:   64
         325       1:   64   41:   44   65:   80
         326       1:   64   41:   44   81:   96
         327       1:   64   41:   44   97:  112
         328       1:   64   41:   44  113:  128
         329       1:   64   41:   44  129:  144
         330       1:   64   41:   44  145:  160
         331       1:   64   41:   44  161:  176
         332       1:   64   41:   44  177:  192
         333       1:   64   41:   44  193:  208
         334       1:   64   41:   44  209:  224
         335       1:   64   41:   44  225:  240
         336       1:   64   41:   44  241:  256
         337       1:   64   41:   44  257:  272
         338       1:   64   41:   44  273:  288
         339       1:   64   41:   44  289:  304
         340       1:   64   41:   44  305:  320
         341       1:   64   41:   44  321:  335
         342       1:   64   41:   44  336:  350
         343       1:   64   41:   44  351:  365
         344       1:   64   41:   44  366:  380
         345       1:   64   41:   44  381:  395
         346       1:   64   41:   44  396:  410
         347       1:   64   41:   44  411:  425
         348       1:   64   41:   44  426:  440
         349       1:   64   41:   44  441:  455
         350       1:   64   41:   44  456:  470
         351       1:   64   41:   44  471:  485
         352       1:   64   41:   44  486:  500
         353       1:   64   45:   48    1:   16
         354       1:   64   45:   48   17:   32
         355       1:   64   45:   48   33:   48
         356       1:   64   45:   48   49:   64
         357       1:   64   45:   48   65:   80
         358       1:   64   45:   48   81:   96
         359       1:   64   45:   48   97:  112
         360       1:   64   45:   48  113:  128
         361       1:   64   45:   48  129:  144
         362       1:   64   45:   48  145:  160
         363       1:   64   45:   48  161:  176
         364       1:   64   45:   48  177:  192
         365       1:   64   45:   48  193:  208
         366       1:   64   45:   48  209:  224
         367       1:   64   45:   48  225:  240
         368       1:   64   45:   48  241:  256
         369       1:   64   45:   48  257:  272
         370       1:   64   45:   48  273:  288
         371       1:   64   45:   48  289:  304
         372       1:   64   45:   48  305:  320
         373       1:   64   45:   48  321:  335
         374       1:   64   45:   48  336:  350
         375       1:   64   45:   48  351:  365
         376       1:   64   45:   48  366:  380
         377       1:   64   45:   48  381:  395
         378       1:   64   45:   48  396:  410
         379       1:   64   45:   48  411:  425
         380       1:   64   45:   48  426:  440
         381       1:   64   45:   48  441:  455
         382       1:   64   45:   48  456:  470
         383       1:   64   45:   48  471:  485
         384       1:   64   45:   48  486:  500
         385       1:   64   49:   52    1:   16
         386       1:   64   49:   52   17:   32
         387       1:   64   49:   52   33:   48
         388       1:   64   49:   52   49:   64
         389       1:   64   49:   52   65:   80
         390       1:   64   49:   52   81:   96
         391       1:   64   49:   52   97:  112
         392       1:   64   49:   52  113:  128
         393       1:   64   49:   52  129:  144
         394       1:   64   49:   52  145:  160
         395       1:   64   49:   52  161:  176
         396       1:   64   49:   52  177:  192
         397       1:   64   49:   52  193:  208
         398       1:   64   49:   52  209:  224
         399       1:   64   49:   52  225:  240
         400       1:   64   49:   52  241:  256
         401       1:   64   49:   52  257:  272
         402       1:   64   49:   52  273:  288
         403       1:   64   49:   52  289:  304
         404       1:   64   49:   52  305:  320
         405       1:   64   49:   52  321:  335
         406       1:   64   49:   52  336:  350
         407       1:   64   49:   52  351:  365
         408       1:   64   49:   52  366:  380
         409       1:   64   49:   52  381:  395
         410       1:   64   49:   52  396:  410
         411       1:   64   49:   52  411:  425
         412       1:   64   49:   52  426:  440
         413       1:   64   49:   52  441:  455
         414       1:   64   49:   52  456:  470
         415       1:   64   49:   52  471:  485
         416       1:   64   49:   52  486:  500
         417       1:   64   53:   56    1:   16
         418       1:   64   53:   56   17:   32
         419       1:   64   53:   56   33:   48
         420       1:   64   53:   56   49:   64
         421       1:   64   53:   56   65:   80
         422       1:   64   53:   56   81:   96
         423       1:   64   53:   56   97:  112
         424       1:   64   53:   56  113:  128
         425       1:   64   53:   56  129:  144
         426       1:   64   53:   56  145:  160
         427       1:   64   53:   56  161:  176
         428       1:   64   53:   56  177:  192
         429       1:   64   53:   56  193:  208
         430       1:   64   53:   56  209:  224
         431       1:   64   53:   56  225:  240
         432       1:   64   53:   56  241:  256
         433       1:   64   53:   56  257:  272
         434       1:   64   53:   56  273:  288
         435       1:   64   53:   56  289:  304
         436       1:   64   53:   56  305:  320
         437       1:   64   53:   56  321:  335
         438       1:   64   53:   56  336:  350
         439       1:   64   53:   56  351:  365
         440       1:   64   53:   56  366:  380
         441       1:   64   53:   56  381:  395
         442       1:   64   53:   56  396:  410
         443       1:   64   53:   56  411:  425
         444       1:   64   53:   56  426:  440
         445       1:   64   53:   56  441:  455
         446       1:   64   53:   56  456:  470
         447       1:   64   53:   56  471:  485
         448       1:   64   53:   56  486:  500
         449       1:   64   57:   60    1:   16
         450       1:   64   57:   60   17:   32
         451       1:   64   57:   60   33:   48
         452       1:   64   57:   60   49:   64
         453       1:   64   57:   60   65:   80
         454       1:   64   57:   60   81:   96
         455       1:   64   57:   60   97:  112
         456       1:   64   57:   60  113:  128
         457       1:   64   57:   60  129:  144
         458       1:   64   57:   60  145:  160
         459       1:   64   57:   60  161:  176
         460       1:   64   57:   60  177:  192
         461       1:   64   57:   60  193:  208
         462       1:   64   57:   60  209:  224
         463       1:   64   57:   60  225:  240
         464       1:   64   57:   60  241:  256
         465       1:   64   57:   60  257:  272
         466       1:   64   57:   60  273:  288
         467       1:   64   57:   60  289:  304
         468       1:   64   57:   60  305:  320
         469       1:   64   57:   60  321:  335
         470       1:   64   57:   60  336:  350
         471       1:   64   57:   60  351:  365
         472       1:   64   57:   60  366:  380
         473       1:   64   57:   60  381:  395
         474       1:   64   57:   60  396:  410
         475       1:   64   57:   60  411:  425
         476       1:   64   57:   60  426:  440
         477       1:   64   57:   60  441:  455
         478       1:   64   57:   60  456:  470
         479       1:   64   57:   60  471:  485
         480       1:   64   57:   60  486:  500
         481       1:   64   61:   64    1:   16
         482       1:   64   61:   64   17:   32
         483       1:   64   61:   64   33:   48
         484       1:   64   61:   64   49:   64
         485       1:   64   61:   64   65:   80
         486       1:   64   61:   64   81:   96
         487       1:   64   61:   64   97:  112
         488       1:   64   61:   64  113:  128
         489       1:   64   61:   64  129:  144
         490       1:   64   61:   64  145:  160
         491       1:   64   61:   64  161:  176
         492       1:   64   61:   64  177:  192
         493       1:   64   61:   64  193:  208
         494       1:   64   61:   64  209:  224
         495       1:   64   61:   64  225:  240
         496       1:   64   61:   64  241:  256
         497       1:   64   61:   64  257:  272
         498       1:   64   61:   64  273:  288
         499       1:   64   61:   64  289:  304
         500       1:   64   61:   64  305:  320
         501       1:   64   61:   64  321:  335
         502       1:   64   61:   64  336:  350
         503       1:   64   61:   64  351:  365
         504       1:   64   61:   64  366:  380
         505       1:   64   61:   64  381:  395
         506       1:   64   61:   64  396:  410
         507       1:   64   61:   64  411:  425
         508       1:   64   61:   64  426:  440
         509       1:   64   61:   64  441:  455
         510       1:   64   61:   64  456:  470
         511       1:   64   61:   64  471:  485
         512       1:   64   61:   64  486:  500

InitMesh: MESH =   128 x   128 x  1000 =    16384000
InitMesh: (bp) =    64 x    64 x   500 =     2048000
InitMesh: Mesh cutoff (required, used) =   100.000   102.000 Ry
ExtMesh (bp) on 0 =   100 x    40 x    48 =      192000
New grid distribution:   2
           1       8:   61   62:   64  220:  235
           2       8:   62    3:    7   17:   32
           3       4:    7    1:    3  142:  157
           4      62:   64   62:   64  204:  219
           5       8:   62    3:    7  298:  313
           6       8:   61   62:   64  236:  250
           7       1:    3   62:   64   48:   63
           8       4:    7    1:    3  126:  141
           9       8:   62    3:    7  360:  375
          10       8:   61   62:   64  142:  156
          11       4:    7    1:    3  376:  391
          12       1:    3   62:   64   32:   47
          13       8:   61   62:   64  314:  328
          14       4:    7    1:    3  204:  219
          15      62:   64   62:   64   32:   47
          16       8:   62    3:    7  235:  250
          17       8:   61   62:   64  392:  406
          18       8:   62    3:    7  267:  282
          19       4:    7    1:    3  173:  188
          20       1:    3    1:    3   17:   32
          21       8:   61   62:   64  111:  125
          22       4:    7    1:    3  454:  469
          23       1:    3    1:    3    1:   16
          24       8:   62    3:    7  376:  391
          25       8:   61   62:   64  439:  453
          26       8:   62    3:    7  392:  407
          27       4:    7    1:    3   17:   32
          28       1:    3   62:   64   16:   31
          29       8:   62    3:    7  110:  125
          30       8:   61   62:   64  486:  500
          31       4:    7    1:    3  470:  485
          32       1:    3    1:    3   48:   63
          33       8:   62    3:    7    1:   16
          34       8:   61    1:    2  360:  375
          35       4:    7    1:    3  423:  438
          36       1:    3   62:   64  110:  125
          37       8:   62    3:    7   64:   79
          38       8:   61    1:    2  189:  204
          39       4:    7   62:   64   48:   63
          40       1:    3    1:    3  126:  141
          41       8:   61    1:    2  392:  407
          42       4:    7   62:   64  360:  375
          43      62:   64   62:   64   95:  110
          44       8:   62    3:    7  173:  188
          45       8:   62    3:    7  189:  204
          46       8:   61    1:    2  251:  266
          47       4:    7   62:   64  173:  188
          48       1:    3    1:    3   79:   94
          49       8:   62    3:    7  251:  266
          50       8:   61    1:    2    1:   16
          51       4:    7   62:   64  157:  172
          52      62:   64   62:   64   48:   63
          53       8:   62    3:    7  314:  329
          54       8:   61    1:    2  142:  157
          55       4:    7   62:   64  298:  313
          56       1:    3   62:   64   64:   79
          57       8:   61    1:    2  173:  188
          58       4:    7    1:    3  267:  282
          59       1:    3    1:    3   95:  110
          60       8:   62    3:    7  423:  438
          61       8:   62    3:    7  439:  454
          62       8:   61    1:    2  267:  282
          63       4:    7    1:    3  345:  360
          64       1:    3   62:   64  360:  375
          65       4:    7   62:   64  282:  297
          66      62:   64    8:   61   17:   31
          67      62:   64   62:   64  282:  297
          68       8:   61    8:   61   48:   63
          69      62:   64    8:   61   64:   78
          70       4:    7    1:    3  392:  407
          71       8:   61    8:   61   95:  110
          72       1:    3   62:   64  298:  313
          73       4:    7   62:   64  235:  250
          74      62:   64    8:   61  142:  156
          75       1:    3    1:    3  345:  360
          76       8:   61    8:   61  173:  188
          77       4:    7    1:    3    1:   16
          78      62:   64    8:   61  204:  219
          79       8:   61    8:   61  220:  235
          80       1:    3   62:   64  314:  329
          81       4:    7    1:    3   95:  110
          82      62:   64   62:   64  251:  266
          83       8:   61    8:   61  282:  297
          84      62:   64    8:   61  298:  313
          85      62:   64    8:   61  314:  328
          86       4:    7   62:   64  439:  454
          87       8:   61    8:   61  345:  360
          88       1:    3   62:   64  266:  281
          89       8:   61    8:   61  376:  391
          90      62:   64    8:   61  392:  406
          91       4:    7    1:    3  251:  266
          92       1:    3    1:    3  329:  344
          93      62:   64    8:   61  439:  453
          94       4:    7    1:    3  220:  235
          95       8:   61    8:   61  470:  485
          96       1:    3   62:   64  282:  297
          97       8:   61    8:   61    1:   16
          98       1:    2    8:   61   16:   31
          99       4:    7    1:    3   48:   63
         100       1:    3    1:    3  486:  500
         101       4:    7   62:   64  423:  438
         102       8:   61    8:   61   79:   94
         103      62:   64   62:   64  314:  328
         104      62:   64    8:   61  111:  125
         105       8:   61    1:    2  110:  125
         106       4:    7   62:   64   16:   31
         107       8:   61    8:   61  157:  172
         108      62:   64   62:   64  392:  406
         109       4:    7    1:    3   79:   94
         110       8:   61    8:   61  204:  219
         111      62:   64    8:   61  220:  235
         112       1:    3    1:    3  189:  203
         113       4:    7    1:    3  329:  344
         114      62:   64   62:   64  267:  281
         115      62:   64    8:   61  282:  297
         116       8:   61    8:   61  298:  313
         117       4:    7   62:   64   64:   79
         118       8:   61    8:   61  329:  344
         119       1:    3   62:   64  126:  140
         120      62:   64    8:   61  361:  375
         121       4:    7    1:    3  298:  313
         122       1:    3    1:    3  439:  453
         123       8:   61    8:   61  407:  422
         124       1:    2    8:   61  423:  438
         125       4:    7   62:   64  407:  422
         126       8:   61    8:   61  454:  469
         127       1:    3    1:    3  314:  328
         128      62:   64    8:   61  486:  500
         129       8:   61    1:    2  485:  500
         130       4:    7   62:   64  345:  359
         131       8:   61    8:   61   32:   47
         132       1:    3   62:   64  470:  484
         133       8:   61    8:   61   64:   78
         134       4:    7    1:    3  361:  375
         135       1:    3   62:   64  455:  469
         136       1:    2    8:   61  110:  125
         137       8:   61    8:   61  126:  141
         138       8:   61    1:    2   48:   63
         139       4:    7    1:    3  314:  328
         140       1:    3    1:    3   64:   78
         141       8:   61    8:   61  189:  203
         142       4:    7   62:   64  330:  344
         143       1:    3   62:   64    1:   15
         144      62:   64    8:   61  236:  250
         145       8:   61    8:   61  251:  266
         146      62:   64    8:   61  267:  281
         147       4:    7   62:   64    1:   15
         148      62:   64   62:   64   17:   31
         149       8:   61    8:   61  314:  328
         150       4:    7   62:   64  205:  219
         151      62:   64   62:   64   64:   78
         152       1:    2    8:   61  360:  375
         153       8:   61    1:    2   64:   79
         154       4:    7   62:   64  220:  234
         155       1:    3   62:   64   95:  109
         156       8:   61    8:   61  423:  438
         157       8:   61    8:   61  439:  453
         158       8:   61    1:    2  235:  250
         159       4:    7   62:   64  126:  140
         160      62:   64   62:   64  111:  125
         161       4:    7    1:    3  111:  125
         162       8:   61    8:   61   17:   31
         163       1:    2    8:   61   32:   47
         164      62:   64   62:   64  361:  375
         165       8:   61    1:    2   17:   32
         166       4:    7   62:   64  376:  390
         167       1:    3    1:    3  111:  125
         168       8:   61    8:   61  111:  125
         169       8:   61    1:    2  314:  329
         170       8:   61    8:   61  142:  156
         171       4:    7    1:    3  189:  203
         172       1:    3    1:    3  361:  375
         173      62:   64    8:   61  189:  203
         174       4:    7   62:   64   95:  109
         175       1:    3   62:   64   80:   94
         176       8:   61    8:   61  236:  250
         177       8:   61    1:    2  423:  438
         178       8:   61    8:   61  267:  281
         179       4:    7    1:    3  486:  500
         180       1:    3   62:   64  251:  265
         181       1:    2    8:   61  314:  329
         182       4:    7   62:   64   80:   94
         183       1:    3   62:   64  220:  234
         184       8:   61    8:   61  361:  375
         185       4:    7    1:    3  236:  250
         186       8:   61    8:   61  392:  406
         187       1:    2    8:   61  407:  422
         188       1:    3   62:   64  345:  359
         189       1:    2    8:   61  439:  454
         190       4:    7   62:   64  455:  469
         191       1:    3   62:   64  205:  219
         192       8:   61    8:   61  486:  500
         193       8:   62    3:    7  485:  500
         194       8:   61    1:    2  298:  313
         195       4:    7   62:   64  470:  484
         196       1:    3   62:   64  376:  390
         197       8:   62    3:    7   48:   63
         198       8:   61    1:    2  376:  391
         199       4:    7    1:    3   64:   78
         200      62:   64   62:   64  236:  250
         201       8:   62    3:    7  142:  157
         202       4:    7   62:   64  251:  265
         203       1:    2    8:   61  157:  172
         204      62:   64   62:   64  189:  203
         205       8:   62    3:    7  126:  141
         206       4:    7    1:    3  439:  453
         207       1:    3    1:    3  236:  250
         208       1:    2    8:   61  235:  250
         209      63:   64    3:    7   17:   32
         210       1:    2    8:   61  266:  281
         211       3:    7    8:   61  282:  297
         212      62:   64   62:   64  486:  500
         213       8:   61    1:    2  126:  141
         214      63:   64    3:    7  235:  250
         215       1:    2    4:    7  142:  157
         216       3:    7    8:   61  360:  375
         217       8:   61    1:    2  439:  454
         218       3:    7    8:   61  391:  406
         219      63:   64    3:    7  439:  454
         220       1:    2    4:    7  454:  469
         221       3:    7    8:   61  439:  454
         222      63:   64    3:    7  173:  188
         223       1:    2    4:    7  376:  391
         224       1:    2    8:   61  485:  500
         225      63:   64    3:    7  110:  125
         226       1:    2    4:    7  251:  266
         227       3:    7    8:   61   32:   47
         228       1:    2    8:   61   48:   63
         229       3:    7    8:   61   64:   79
         230       8:   61    1:    2  470:  484
         231      63:   64    3:    7  298:  313
         232       1:    2    4:    7   48:   63
         233      63:   64    3:    7  189:  204
         234       1:    2    4:    7  126:  141
         235       3:    7    8:   61  157:  172
         236       1:    2    8:   61  173:  188
         237       1:    2    8:   61  189:  204
         238      63:   64    3:    7  360:  375
         239       1:    2    4:    7  298:  313
         240       3:    7    8:   61  235:  250
         241      63:   64    3:    7  142:  157
         242       3:    7    8:   61  266:  281
         243       1:    2    4:    7  220:  235
         244       1:    2    8:   61  298:  313
         245       3:    7    8:   61  314:  329
         246       8:   61    1:    2  158:  172
         247      63:   64    3:    7  314:  329
         248       1:    2    4:    7  470:  485
         249      63:   64    3:    7    1:   16
         250       1:    2    8:   61  391:  406
         251       3:    7    8:   61  407:  422
         252       1:    2    4:    7  204:  219
         253       8:   61    1:    2  330:  344
         254      63:   64    3:    7   64:   79
         255       1:    2    4:    7  392:  407
         256       3:    7    8:   61  485:  500
         257       8:   61    1:    2  220:  234
         258      63:   64    3:    7  485:  500
         259       1:    2    4:    7   17:   32
         260       3:    7    8:   61   48:   63
         261       1:    2    8:   61   64:   79
         262      63:   64    3:    7  126:  141
         263       1:    2    4:    7  423:  438
         264       3:    7    8:   61  110:  125
         265       8:   61    1:    2   33:   47
         266       3:    7    8:   61  141:  156
         267      63:   64    3:    7  267:  282
         268       1:    2    4:    7  329:  344
         269       3:    7    8:   61  189:  204
         270       1:    2    8:   61  205:  219
         271      63:   64    3:    7   48:   63
         272       1:    2    4:    7    1:   16
         273      63:   64    3:    7  423:  438
         274       1:    2    4:    7  345:  360
         275       1:    2    8:   61  282:  297
         276       3:    7    8:   61  298:  313
         277       8:   62    3:    7  283:  297
         278      63:   64    3:    7  376:  391
         279       1:    2    8:   61  345:  359
         280       1:    2    4:    7   95:  110
         281       1:    2    8:   61  376:  390
         282      63:   64    3:    7  392:  407
         283       1:    2    4:    7  173:  188
         284       3:    7    8:   61  423:  438
         285       8:   62    3:    7  158:  172
         286       8:   61    1:    2  408:  422
         287      63:   64    3:    7  251:  266
         288       1:    2    4:    7   79:   94
         289       8:   61    1:    2  455:  469
         290       3:    7    8:   61   16:   31
         291       1:    2    3:    7   33:   47
         292       1:    2    4:    7  267:  282
         293       8:   62    3:    7  205:  219
         294       1:    2    8:   61   80:   94
         295      63:   64    3:    7  330:  344
         296       1:    2    4:    7  361:  375
         297      63:   64    3:    7  455:  469
         298       1:    2    8:   61  141:  156
         299       1:    2    4:    7   64:   78
         300       3:    7    8:   61  173:  188
         301       8:   62    3:    7  220:  234
         302       1:    2    3:    7  283:  297
         303       1:    2    8:   61  220:  234
         304       4:    7    1:    2  283:  297
         305       8:   62    3:    7  330:  344
         306       8:   61    1:    2  283:  297
         307      63:   64    3:    7  408:  422
         308       1:    2    4:    7  111:  125
         309       8:   62    3:    7  470:  484
         310       1:    2    8:   61  330:  344
         311      63:   64    3:    7  345:  359
         312       1:    2    4:    7  439:  453
         313       8:   62    3:    7   33:   47
         314       8:   61    1:    2   80:   94
         315       1:    2    3:    7  158:  172
         316       4:    7    1:    2  408:  422
         317       8:   62    3:    7   80:   94
         318       1:    2    8:   61  455:  469
         319      63:   64    3:    7  220:  234
         320       4:    7    1:    2   33:   47
         321       8:   62    3:    7  408:  422
         322       8:   61    1:    2   95:  109
         323      63:   64    3:    7   33:   47
         324       1:    2    4:    7  236:  250
         325       8:   62    3:    7   95:  109
         326       8:   61    1:    2  345:  359
         327      63:   64    3:    7  470:  484
         328       1:    2    4:    7  314:  328
         329       8:   62    3:    7  455:  469
         330       8:   61    1:    2  205:  219
         331       1:    2    3:    7  408:  422
         332       1:    2    4:    7  486:  500
         333       8:   62    3:    7  345:  359
         334      63:   64    3:    7  283:  297
         335       4:    7    1:    2  158:  172
         336       1:    2    8:   61  251:  265
         337       3:    7    8:   61  251:  265
         338       3:    7    3:    7   33:   47
         339      63:   64    3:    7  158:  172
         340       1:    2    4:    7  189:  203
         341       3:    7    3:    7  408:  422
         342       3:    7    8:   61  330:  344
         343      63:   64    3:    7   95:  109
         344      62:   64    1:    2  314:  329
         345       3:    7    8:   61  376:  390
         346       3:    7    3:    7  283:  297
         347      63:   64    3:    7  205:  219
         348      62:   64    1:    2  189:  204
[...]

                         Max       Max/Min        Avg      Total 
Time (sec):           5.731e+01      1.00000   5.731e+01
Objects:              2.366e+03      1.06529   2.358e+03
Flops:                6.662e+08   2524.71361   4.223e+08  2.162e+11
Flops/sec:            1.162e+07   2524.71337   7.369e+06  3.773e+09
MPI Messages:         2.083e+04      3.53411   1.436e+04  7.354e+06
MPI Message Lengths:  1.502e+07      2.87795   7.511e+02  5.524e+09
MPI Reductions:       1.070e+04      1.40107

Flop counting convention: 1 flop = 1 real number operation of type (multiply/divide/add/subtract)
                            e.g., VecAXPY() for real vectors of length N --> 2N flops
                            and VecAXPY() for complex vectors of length N --> 8N flops

Summary of Stages:   ----- Time ------  ----- Flops -----  --- Messages ---  -- Message Lengths --  -- Reductions --
                        Avg     %Total     Avg     %Total   counts   %Total     Avg         %Total   counts   %Total 
 0:      Main Stage: 1.9512e-04   0.0%  0.0000e+00   0.0%  0.000e+00   0.0%  0.000e+00        0.0%  0.000e+00   0.0% 
 1:     siesta_init: 2.8019e+00   4.9%  0.0000e+00   0.0%  0.000e+00   0.0%  0.000e+00        0.0%  0.000e+00   0.0% 
 2:   siesta_forces: 1.8014e+01  31.4%  0.0000e+00   0.0%  0.000e+00   0.0%  0.000e+00        0.0%  0.000e+00   0.0% 
 3:    siesta_solve: 6.8210e-04   0.0%  0.0000e+00   0.0%  0.000e+00   0.0%  0.000e+00        0.0%  0.000e+00   0.0% 
 4:    siesta2qetsc: 3.5931e-02   0.1%  0.0000e+00   0.0%  7.236e+04   1.0%  2.159e-01        0.0%  5.300e+01   0.7% 
 5: qetsc_setup_eps: 1.8376e+00   3.2%  1.5676e+08   0.1%  1.625e+06  22.1%  3.238e+02       43.1%  3.000e+02   3.9% 
 6: qetsc_solve_eps: 1.8578e+01  32.4%  2.1607e+11  99.9%  2.810e+06  38.2%  4.130e+02       55.0%  2.528e+03  33.1% 
 7:   qetsc_eigvals: 3.7193e-03   0.0%  0.0000e+00   0.0%  0.000e+00   0.0%  0.000e+00        0.0%  0.000e+00   0.0% 
 8:   qetsc_density: 4.3658e+00   7.6%  0.0000e+00   0.0%  2.847e+06  38.7%  1.412e+01        1.9%  6.932e+03  90.7% 
10:     siesta_misc: 5.4455e+00   9.5%  0.0000e+00   0.0%  0.000e+00   0.0%  0.000e+00        0.0%  0.000e+00   0.0% 
11:     siesta_move: 1.2084e-01   0.2%  0.0000e+00   0.0%  0.000e+00   0.0%  0.000e+00        0.0%  0.000e+00   0.0% 
12: siesta_analysis: 3.8077e-03   0.0%  0.0000e+00   0.0%  0.000e+00   0.0%  0.000e+00        0.0%  0.000e+00   0.0% 
13:     qetsc_clean: 3.3845e-06   0.0%  0.0000e+00   0.0%  0.000e+00   0.0%  0.000e+00        0.0%  0.000e+00   0.0% 
14:      siesta_end: 6.1047e+00  10.7%  0.0000e+00   0.0%  0.000e+00   0.0%  0.000e+00        0.0%  0.000e+00   0.0% 

------------------------------------------------------------------------------------------------------------------------
See the 'Profiling' chapter of the users' manual for details on interpreting output.
Phase summary info:
   Count: number of times phase was executed
   Time and Flops: Max - maximum over all processors
                   Ratio - ratio of maximum to minimum over all processors
   Mess: number of messages sent
   Avg. len: average message length (bytes)
   Reduct: number of global reductions
   Global: entire computation
   Stage: stages of a computation. Set stages with PetscLogStagePush() and PetscLogStagePop().
      %T - percent time in this phase         %F - percent flops in this phase
      %M - percent messages in this phase     %L - percent message lengths in this phase
      %R - percent reductions in this phase
   Total Mflop/s: 10e-6 * (sum of flops over all processors)/(max time over all processors)
------------------------------------------------------------------------------------------------------------------------
Event                Count      Time (sec)     Flops                             --- Global ---  --- Stage ---   Total
                   Max Ratio  Max     Ratio   Max  Ratio  Mess   Avg len Reduct  %T %F %M %L %R  %T %F %M %L %R Mflop/s
------------------------------------------------------------------------------------------------------------------------

--- Event Stage 0: Main Stage


--- Event Stage 1: siesta_init


--- Event Stage 2: siesta_forces


--- Event Stage 3: siesta_solve


--- Event Stage 4: siesta2qetsc

MatConvert             2 1.0 1.3233e-03 1.4 0.00e+00 0.0 0.0e+00 0.0e+00 0.0e+00  0  0  0  0  0   3  0  0  0  0     0
MatAssemblyBegin      10 1.0 1.6647e-02 5.1 0.00e+00 0.0 0.0e+00 0.0e+00 4.0e+01  0  0  0  0  1  31  0  0  0 75     0
MatAssemblyEnd        10 1.0 4.6527e-03 1.0 0.00e+00 0.0 7.2e+04 2.2e+01 1.1e+01  0  0  1  0  0  13  0100100 21     0
VecSet                 3 1.0 1.3197e-05 1.6 0.00e+00 0.0 0.0e+00 0.0e+00 0.0e+00  0  0  0  0  0   0  0  0  0  0     0

--- Event Stage 5: qetsc_setup_eps

MatCholFctrSym         1 1.0 1.1315e-01 1.1 0.00e+00 0.0 0.0e+00 0.0e+00 5.0e+00  0  0  0  0  0   6  0  0  0  2     0
MatCholFctrNum         5 1.0 8.6593e-01 1.0 0.00e+00 0.0 0.0e+00 0.0e+00 0.0e+00  1  0  0  0  0  46  0  0  0  0     0
MatCopy                4 1.0 9.4472e-02 1.0 0.00e+00 0.0 0.0e+00 0.0e+00 2.4e+01  0  0  0  0  0   5  0  0  0  8     0
MatConvert             1 1.0 1.9281e-03 1.5 0.00e+00 0.0 0.0e+00 0.0e+00 0.0e+00  0  0  0  0  0   0  0  0  0  0     0
MatScale              16 1.0 1.8592e-03 2.2 3.48e+05 1.3 0.0e+00 0.0e+00 0.0e+00  0  0  0  0  0   0100  0  0  0 84319
MatAssemblyBegin      29 1.0 2.4211e-0176.6 0.00e+00 0.0 0.0e+00 0.0e+00 7.6e+01  0  0  0  0  1   4  0  0  0 25     0
MatAssemblyEnd        29 1.0 2.5946e-02 1.1 0.00e+00 0.0 4.0e+04 2.7e+02 8.8e+01  0  0  1  0  1   1  0  2  0 29     0
MatGetRow           5152 1.0 9.3899e-02 1.5 0.00e+00 0.0 0.0e+00 0.0e+00 0.0e+00  0  0  0  0  0   4  0  0  0  0     0
MatGetSubMatrice      10 1.0 2.7022e-01 2.6 0.00e+00 0.0 1.6e+06 1.5e+03 2.0e+01  0  0 22 43  0   8  0 98100  7     0
MatZeroEntries         4 1.0 1.0800e-03 1.2 0.00e+00 0.0 0.0e+00 0.0e+00 0.0e+00  0  0  0  0  0   0  0  0  0  0     0
MatAXPY               13 1.0 2.4116e-01 1.0 0.00e+00 0.0 2.5e+04 2.7e+02 8.0e+01  0  0  0  0  1  13  0  2  0 27     0
MatRedundantMat       10 1.0 4.8127e-01 1.5 0.00e+00 0.0 1.6e+06 1.5e+03 1.0e+02  1  0 22 43  1  20  0 98100 35     0
MatMPIConcateSeq      10 1.0 3.2173e-01 1.6 0.00e+00 0.0 1.5e+04 2.7e+02 8.5e+01  0  0  0  0  1  12  0  1  0 28     0
VecSet                10 1.0 5.8055e-05 2.5 0.00e+00 0.0 0.0e+00 0.0e+00 0.0e+00  0  0  0  0  0   0  0  0  0  0     0
EPSSetUp               5 1.0 1.5599e+00 1.1 0.00e+00 0.0 3.5e+05 1.4e+03 2.4e+02  3  0  5  9  3  84  0 22 20 78     0
STSetUp               10 1.0 1.3229e+00 1.0 0.00e+00 0.0 2.5e+04 2.7e+02 1.1e+02  2  0  0  0  1  71  0  2  0 38     0
KSPSetUp               5 1.0 1.2833e-05 2.4 0.00e+00 0.0 0.0e+00 0.0e+00 0.0e+00  0  0  0  0  0   0  0  0  0  0     0
PCSetUp                5 1.0 9.8846e-01 1.0 0.00e+00 0.0 0.0e+00 0.0e+00 5.0e+00  2  0  0  0  0  53  0  0  0  2     0

--- Event Stage 6: qetsc_solve_eps

MatMult             2892 0.0 2.4476e+00 0.0 5.01e+08 0.0 2.1e+06 7.4e+02 0.0e+00  3 73 28 28  0   8 73 74 50  0 64328
MatSolve            1085 0.0 1.0432e+01 0.0 0.00e+00 0.0 6.9e+05 2.2e+03 7.7e+02 13  0  9 27 10  40  0 25 49 31     0
MatCholFctrNum         9 1.0 1.5394e+00 1.0 0.00e+00 0.0 0.0e+00 0.0e+00 0.0e+00  3  0  0  0  0   8  0  0  0  0     0
MatCopy                9 1.0 2.1276e-01 1.0 0.00e+00 0.0 0.0e+00 0.0e+00 5.4e+01  0  0  0  0  1   1  0  0  0  2     0
MatAssemblyBegin      18 1.0 1.6852e-0158.4 0.00e+00 0.0 0.0e+00 0.0e+00 7.2e+01  0  0  0  0  1   0  0  0  0  3     0
MatAssemblyEnd        18 1.0 2.4542e-02 1.0 0.00e+00 0.0 4.5e+04 2.7e+02 1.1e+02  0  0  1  0  1   0  0  2  0  4     0
MatGetRow           9936 1.0 1.8029e-01 1.4 0.00e+00 0.0 0.0e+00 0.0e+00 0.0e+00  0  0  0  0  0   1  0  0  0  0     0
MatZeroEntries         9 1.0 2.4143e-03 1.2 0.00e+00 0.0 0.0e+00 0.0e+00 0.0e+00  0  0  0  0  0   0  0  0  0  0     0
MatAXPY                9 1.0 4.3108e-01 1.0 0.00e+00 0.0 4.5e+04 2.7e+02 1.4e+02  1  0  1  0  2   2  0  2  0  6     0
VecDot               149 0.0 2.6871e-02 0.0 1.10e+05 0.0 0.0e+00 0.0e+00 5.4e+01  0  0  0  0  1   0  0  0  0  2   756
VecCopy               18 0.0 6.6202e-05 0.0 0.00e+00 0.0 0.0e+00 0.0e+00 0.0e+00  0  0  0  0  0   0  0  0  0  0     0
VecSet              97701085.6 2.0013e-02870.2 0.00e+00 0.0 0.0e+00 0.0e+00 0.0e+00  0  0  0  0  0   0  0  0  0  0     0
VecScatterBegin     5062 0.0 3.5719e-01 0.0 0.00e+00 0.0 2.7e+06 1.1e+03 7.6e+02  0  0 37 55 10   1  0 98 99 30     0
VecScatterEnd       3977 0.0 5.1497e-01 0.0 0.00e+00 0.0 0.0e+00 0.0e+00 0.0e+00  0  0  0  0  0   1  0  0  0  0     0
VecSetRandom           9 0.0 2.0280e-03 0.0 0.00e+00 0.0 0.0e+00 0.0e+00 0.0e+00  0  0  0  0  0   0  0  0  0  0     0
EPSSetUp               9 1.0 2.9620e+00 1.3 0.00e+00 0.0 4.6e+04 2.6e+02 3.1e+02  5  0  1  0  4  16  0  2  0 12     0
EPSSolve               9 1.0 1.8598e+01 1.0 6.66e+08 0.0 2.8e+06 1.1e+03 2.5e+03 32100 38 55 33 100100100100100 11618
STSetUp               13 1.0 9.7034e-01 1.0 0.00e+00 0.0 2.0e+04 2.7e+02 8.8e+01  2  0  0  0  1   5  0  1  0  3     0
STApply             1085 0.0 1.1357e+01 0.0 1.88e+08 0.0 1.5e+06 1.4e+03 7.7e+02 14 27 20 37 10  43 27 52 68 31  5178
STMatSolve          1085 0.0 1.0581e+01 0.0 0.00e+00 0.0 6.9e+05 2.2e+03 7.7e+02 13  0  9 27 10  40  0 25 49 31     0
KSPSetUp               9 1.0 1.7678e-05 2.0 0.00e+00 0.0 0.0e+00 0.0e+00 0.0e+00  0  0  0  0  0   0  0  0  0  0     0
KSPSolve            1085 0.0 1.0466e+01 0.0 0.00e+00 0.0 6.9e+05 2.2e+03 7.7e+02 13  0  9 27 10  40  0 25 49 31     0
PCSetUp                9 1.0 1.5396e+00 1.0 0.00e+00 0.0 0.0e+00 0.0e+00 0.0e+00  3  0  0  0  0   8  0  0  0  0     0
PCApply             1085 0.0 1.0436e+01 0.0 0.00e+00 0.0 6.9e+05 2.2e+03 7.7e+02 13  0  9 27 10  40  0 25 49 31     0
BVCreate              18 0.0 7.4175e-03 0.0 0.00e+00 0.0 0.0e+00 0.0e+00 1.0e+02  0  0  0  0  1   0  0  0  0  4     0
BVCopy                18 0.0 1.8822e-04 0.0 0.00e+00 0.0 0.0e+00 0.0e+00 0.0e+00  0  0  0  0  0   0  0  0  0  0     0
BVMultVec           1680 0.0 9.3274e-02 0.0 5.79e+07 0.0 0.0e+00 0.0e+00 0.0e+00  0  9  0  0  0   0  9  0  0  0 200022
BVMultInPlace         18 0.0 2.4224e-02 0.0 4.76e+07 0.0 0.0e+00 0.0e+00 0.0e+00  0 10  0  0  0   0 10  0  0  0 853960
BVDotVec            1680 0.0 1.6334e+00 0.0 3.50e+08 0.0 1.2e+06 7.4e+02 1.2e+03  2 53 17 17 16   6 53 44 30 48 69522
BVOrthogonalizeV     958 0.0 1.7301e+00 0.0 4.08e+08 0.0 1.2e+06 7.4e+02 1.2e+03  2 61 17 17 16   7 61 44 30 48 76418
BVScale             1085 0.0 5.8292e-03 0.0 3.99e+05 0.0 0.0e+00 0.0e+00 0.0e+00  0  0  0  0  0   0  0  0  0  0 24428
BVNormVec            149 0.0 1.3607e-01 0.0 2.59e+07 0.0 5.5e+04 7.4e+02 5.4e+01  0  2  1  1  1   0  2  2  1  2 31030
BVSetRandom            9 0.0 2.1269e-03 0.0 0.00e+00 0.0 0.0e+00 0.0e+00 0.0e+00  0  0  0  0  0   0  0  0  0  0     0
DSSolve               18 0.0 1.7253e-01 0.0 0.00e+00 0.0 0.0e+00 0.0e+00 0.0e+00  0  0  0  0  0   1  0  0  0  0     0
DSVectors           1173 0.0 2.7840e-03 0.0 0.00e+00 0.0 0.0e+00 0.0e+00 0.0e+00  0  0  0  0  0   0  0  0  0  0     0
DSOther               18 0.0 4.8728e-03 0.0 0.00e+00 0.0 0.0e+00 0.0e+00 0.0e+00  0  0  0  0  0   0  0  0  0  0     0

--- Event Stage 7: qetsc_eigvals


--- Event Stage 8: qetsc_density

VecCopy             3456 1.0 6.5579e-03 1.6 0.00e+00 0.0 0.0e+00 0.0e+00 0.0e+00  0  0  0  0  0   0  0  0  0  0     0
VecSet                 1 1.0 7.4031e-06 1.6 0.00e+00 0.0 0.0e+00 0.0e+00 0.0e+00  0  0  0  0  0   0  0  0  0  0     0
VecScatterBegin     6912 1.0 1.1878e+00 1.8 0.00e+00 0.0 1.7e+06 4.7e+01 3.5e+03  1  0 23  1 45  16  0 60 78 50     0
VecScatterEnd       3456 1.0 1.0950e+00304.4 0.00e+00 0.0 0.0e+00 0.0e+00 0.0e+00  2  0  0  0  0  23  0  0  0  0     0
BVCopy              3456 1.0 2.2860e-02 1.2 0.00e+00 0.0 0.0e+00 0.0e+00 0.0e+00  0  0  0  0  0   1  0  0  0  0     0

--- Event Stage 9: Unknown


--- Event Stage 10: siesta_misc


--- Event Stage 11: siesta_move


--- Event Stage 12: siesta_analysis


--- Event Stage 13: qetsc_clean


--- Event Stage 14: siesta_end

------------------------------------------------------------------------------------------------------------------------

Memory usage is given in bytes:

Object Type          Creations   Destructions     Memory  Descendants' Mem.
Reports information only for process 0.

--- Event Stage 0: Main Stage


--- Event Stage 1: siesta_init


--- Event Stage 2: siesta_forces


--- Event Stage 3: siesta_solve


--- Event Stage 4: siesta2qetsc

              Matrix     9              0            0     0.
              Vector    19              1         1648     0.
      Vector Scatter     4              0            0     0.
           Index Set     4              4         7960     0.

--- Event Stage 5: qetsc_setup_eps

              Matrix    31             15      3301500     0.
              Vector   107             63       190736     0.
      Vector Scatter    18              9         9648     0.
           Index Set    61             54        77664     0.
          EPS Solver     2              0            0     0.
  Spectral Transform     2              0            0     0.
       Krylov Solver     2              0            0     0.
      Preconditioner     2              0            0     0.
       Basis Vectors     7              4         4224     0.
         PetscRandom     1              0            0     0.
              Region     2              0            0     0.
       Direct Solver     2              0            0     0.

--- Event Stage 6: qetsc_solve_eps

              Matrix    27             27      6061428     0.
              Vector   117            117       359640     0.
      Vector Scatter    18             18        19296     0.
           Index Set    36             36        67968     0.
       Basis Vectors     9              9         9504     0.

--- Event Stage 7: qetsc_eigvals


--- Event Stage 8: qetsc_density

              Vector    10              9        41328     0.
      Vector Scatter   577            576       617904     0.
           Index Set  1153           1153       931600     0.

--- Event Stage 9: Unknown


--- Event Stage 10: siesta_misc


--- Event Stage 11: siesta_move

              Matrix     0             25      5419756     0.
              Vector     0             63       477984     0.
      Vector Scatter     0             14        14176     0.
           Index Set     0              7         5488     0.
          EPS Solver     0              2        25144     0.
  Spectral Transform     0              2         1632     0.
       Krylov Solver     0              2         2336     0.
      Preconditioner     0              2         1952     0.
       Basis Vectors     0              3         3168     0.
         PetscRandom     0              1          638     0.
              Region     0              2         1312     0.
       Direct Solver     0              2       109992     0.

--- Event Stage 12: siesta_analysis


--- Event Stage 13: qetsc_clean


--- Event Stage 14: siesta_end

              Viewer     1              0            0     0.
========================================================================================================================
Average time to get PetscTime(): 1.24437e-07
Average time for MPI_Barrier(): 3.27375e-06
Average time for zero size MPI_Send(): 1.1183e-05
#PETSc Option Table entries:
-eps_interval -2.3,0.
-eps_krylovschur_detect_zeros 0
-eps_krylovschur_partitions 64
-ioptbin 7
-ioptdensity 0
-ioptinertia 1
-ioptleft 2
-ioptwrite 1
-log_view
-mat_mumps_cntl_3 1e-12
-mat_mumps_icntl_13 1
-mat_mumps_icntl_23 0
-mat_mumps_icntl_24 1
-mat_mumps_icntl_7 5
-mat_type mpisbaij
#End of PETSc Option Table entries
Compiled with FORTRAN kernels
Compiled with full precision matrices (default)
sizeof(short) 2 sizeof(int) 4 sizeof(long) 8 sizeof(void*) 8 sizeof(PetscScalar) 8 sizeof(PetscInt) 4
Configure options: --known-has-attribute-aligned=1 --download-chaco=0 --download-cmake=0 --download-hypre=0 --download-metis=1 --download-mumps=1 --download-parmetis=1 --download-plapack=0 --download-prometheus=0 --download-ptscotch=1 --download-spai=0 --download-spooles=0 --download-superlu=0 --download-superlu_dist=0 --download-triangle=0 --known-bits-per-byte=8 --known-level1-dcache-assoc=0 --known-level1-dcache-linesize=32 --known-level1-dcache-size=32768 --known-memcmp-ok=1 --known-mpi-c-double-complex=1 --known-mpi-int64_t=1 --known-mpi-long-double=1 --known-mpi-shared-libraries=0 --known-sdot-returns-double=0 --known-sizeof-MPI_Comm=4 --known-sizeof-MPI_Fint=4 --known-sizeof-char=1 --known-sizeof-double=8 --known-sizeof-float=4 --known-sizeof-int=4 --known-sizeof-long-long=8 --known-sizeof-long=8 --known-sizeof-short=2 --known-sizeof-size_t=8 --known-sizeof-void-p=8 --known-snrm2-returns-double=0 --with-batch=1 --with-blacs-include=/soft/libraries/alcf/current/xl/SCALAPACK/ --with-blacs-lib=/soft/libraries/alcf/current/xl/SCALAPACK/lib/libscalapack.a --with-blas-lapack-lib="-L/soft/libraries/alcf/current/xl/LAPACK/lib -llapack -L/soft/libraries/alcf/current/xl/BLAS/lib -lblas" --with-cc=mpixlc_r --with-clib-autodetect=0 --with-cxx=mpixlcxx_r --with-cxxlib-autodetect=0 --with-debugging=0 --with-fc="mpixlf77_r -qnosave" --with-fortran-kernels=1 --with-fortranlib-autodetect=0 --with-is-color-value-type=short --with-scalapack-include=/soft/libraries/alcf/current/xl/SCALAPACK/ --with-scalapack-lib=/soft/libraries/alcf/current/xl/SCALAPACK/lib/libscalapack.a --with-shared-libraries=0 --with-x=0 -COPTFLAGS=" -g -O3 -qhot=level=0 -qsimd=auto -qmaxmem=-1 -qstrict -qstrict_induction" -CXXOPTFLAGS="  -g -O3 -qhot=level=0 -qsimd=auto -qmaxmem=-1 -qstrict -qstrict_induction" -FOPTFLAGS=" -g -O3 -qhot=level=0 -qsimd=auto -qmaxmem=-1 -qstrict -qstrict_induction" LIBS="-lmpichcxx-gcc -lmpichf77-gcc -L/soft/compilers/ibmcmp-feb2015/vacpp/bg/12.1/bglib64 -libmc++ -L/soft/compilers/ibmcmp-feb2015/xlf/bg/14.1/bglib64 -lxlf90_r -lxlomp_ser -lxlfmath" PETSC_ARCH=arch-xl
-----------------------------------------
Libraries compiled on Sat Aug 20 04:19:47 2016 on vestalac2 
Machine characteristics: Linux-2.6.32-573.18.1.el6.ppc64-ppc64-with-redhat-6.7-Santiago
Using PETSc directory: /home/keceli/scratch2/petsc
Using PETSc arch: arch-xl
-----------------------------------------

Using C compiler: mpixlc_r   -g -O3 -qhot=level=0 -qsimd=auto -qmaxmem=-1 -qstrict -qstrict_induction  ${COPTFLAGS} ${CFLAGS}
Using Fortran compiler: mpixlf77_r -qnosave  -g -O3 -qhot=level=0 -qsimd=auto -qmaxmem=-1 -qstrict -qstrict_induction   ${FOPTFLAGS} ${FFLAGS} 
-----------------------------------------

Using include paths: -I/home/keceli/scratch2/petsc/arch-xl/include -I/home/keceli/scratch2/petsc/include -I/home/keceli/scratch2/petsc/include -I/home/keceli/scratch2/petsc/arch-xl/include -I/bgsys/drivers/V1R2M4/ppc64/comm/include -I/bgsys/drivers/V1R2M4/ppc64/comm/lib/xl -I/bgsys/drivers/V1R2M4/ppc64 -I/bgsys/drivers/V1R2M4/ppc64/comm/sys/include -I/bgsys/drivers/V1R2M4/ppc64/spi/include -I/bgsys/drivers/V1R2M4/ppc64/spi/include/kernel/cnk
-----------------------------------------

Using C linker: mpixlc_r
Using Fortran linker: mpixlf77_r -qnosave
Using libraries: -Wl,-rpath,/home/keceli/scratch2/petsc/arch-xl/lib -L/home/keceli/scratch2/petsc/arch-xl/lib -lpetsc -Wl,-rpath,/home/keceli/scratch2/petsc/arch-xl/lib -L/home/keceli/scratch2/petsc/arch-xl/lib -lcmumps -ldmumps -lsmumps -lzmumps -lmumps_common -lpord -Wl,-rpath,/soft/libraries/alcf/current/xl/SCALAPACK/lib -L/soft/libraries/alcf/current/xl/SCALAPACK/lib -lscalapack -L/soft/libraries/alcf/current/xl/LAPACK/lib -llapack -L/soft/libraries/alcf/current/xl/BLAS/lib -lblas -lparmetis -lmetis -lptesmumps -lptscotch -lptscotcherr -lscotch -lscotcherr -lrt -lm -lpthread -ldl -lmpichcxx-gcc -lmpichf77-gcc -L/soft/compilers/ibmcmp-feb2015/vacpp/bg/12.1/bglib64 -libmc++ -L/soft/compilers/ibmcmp-feb2015/xlf/bg/14.1/bglib64 -lxlf90_r -lxlomp_ser -lxlfmath
-----------------------------------------

