s.subSiesta: Submission time = 57s59m17h
s.subSiesta: Job name = qp64_s64_n16_c16_vesta
s.subSiesta: Number of nodes = 16
s.subSiesta: Number of cores = 256
s.subSiesta: Number of cores/node = 16
s.subSiesta: Number of slices = 64
s.subSiesta: Mapping = ABCDET
57s59m17h
#QETSc options
-ioptbin 7
-ioptdensity 0
-ioptinertia 1
-ioptleft 2
-ioptwrite 1 
#-roptbuffer 0.01
#-roptdiff 0.02

#PETSc options
-mat_type mpisbaij
-log_view
#-mat_view
#-memory_view
#-mat_mumps_icntl_13 1 #turn off scaLAPACK for matrix inertia
#-mat_mumps_icntl_24 1 #null pivot row detection for matrix inertia
-mat_mumps_icntl_23 0
#-mat_mumps_icntl_28 1 # serial analysis
#-mat_mumps_icntl_28 2 #parallel analysis
#-mat_mumps_icntl_29 1 #ptscotch
#-mat_mumps_icntl_29 2 #parmetis
-mat_mumps_icntl_7 5 #metis
#-malloc_info 
#-mat_view ::ascii_info 
#-mat_getrow_uppertriangular 1
#-st_type sinvert 
#-st_ksp_type preonly 
#-st_pc_type cholesky 
#-st_pc_factor_mat_solver_package mumps 

#SLEPc options

#-eps_krylovschur_partitions 1  
-eps_interval -2.3,0.
#-eps_tol  1.e-8
-eps_krylovschur_detect_zeros 0
#-eps_purify 1
SystemName          polyethylene
SystemLabel         polyethylene
NumberOfAtoms       6
NumberOfSpecies     2

%block ChemicalSpeciesLabel
 1  6  C
 2  1  H
%endblock ChemicalSpeciesLabel

DM.MixingWeight 0.3
DM.NumberPulay 3
#BlockSize 23
SolutionMethod  qetsc
WriteDM .false.
WriteDM.NetCDF .false.
WriteDMHS.NetCDF .false.
LongOutput .false.
#MaxSCFIterations 1

PAO.BasisType split
PAO.BasisSize DZP

LatticeConstant 1.00 Ang
%block LatticeVectors
20.000  0.000  0.000
 0.000 20.000  0.000
 0.000  0.000  2.572
%endblock LatticeVectors

%block kgrid_Monkhorst_Pack
1 0 0 0.0
0 1 0 0.0
0 0 1 0.0
%endblock kgrid_Monkhorst_Pack

%block SuperCell
1 0 0
0 1 0
0 0 64
%endblock SuperCell

AtomicCoordinatesFormat Ang
%block AtomicCoordinatesAndAtomicSpecies
  0.31237500000000001       0.28138740000000001       0.64300000000000002     1
   1.3964999999999999        7.3970400000000006E-002  0.64300000000000002     2
  0.21462000000000001        1.3794480000000002       0.64300000000000002     2
 -0.31237500000000001      -0.28138740000000001      -0.64300000000000002     1
  -1.3964999999999999       -7.3970400000000006E-002 -0.64300000000000002     2
 -0.21462000000000001       -1.3794480000000002      -0.64300000000000002     2
%endblock AtomicCoordinatesAndAtomicSpecies
Siesta Version: siesta-trunk-492
Architecture  : powerpc64-unknown-linux-gnu--Xlf
Compiler flags: mpixlf90_r -I/home/keceli/scratch2/petsc/include -I/home/keceli/scratch2/petssc/arch-xl/include -I/bgsys/drivers/V1R2M4/ppc64/comm/include -I/bgsys/drivers/V1R2M4/ppc64/comm/lib/xl -I/bgsys/drivers/V1R2M4/ppc64 -I/bgsys/drivers/V1R2M4/ppc64/comm/sys/include -I/bgsys/drivers/V1R2M4/ppc64/spi/include -I/bgsys/drivers/V1R2M4/ppc64/spi/include/kernel/cnk -I/home/keceli/scratch2/slepcfork/include -I/home/keceli/scratch2/slepcfork/arch-xl/include
PP flags      : -WF,-DMPI -WF,-DFC_HAVE_ABORT -WF,-DBSC_CELLXC -WF,-DMPI_TIMING 
PARALLEL version

* Running on  256 nodes in parallel
>> Start of run:  11-JAN-2017  18:01:08

                           ***********************       
                           *  WELCOME TO SIESTA  *       
                           ***********************       
WARNING: Siesta is reading its input from file INPUT_DEBUG

reinit: -----------------------------------------------------------------------
reinit: System Name: polyethylene
reinit: -----------------------------------------------------------------------
reinit: System Label: polyethylene                                                
reinit: -----------------------------------------------------------------------

initatom: Reading input for the pseudopotentials and atomic orbitals ----------
Species number:   1 Atomic number:    6 Label: C
Species number:   2 Atomic number:    1 Label: H
 
Ground state valence configuration:   2s02  2p02
Reading pseudopotential information in formatted form from C.psf

Valence configuration for pseudopotential generation:
2s( 2.00) rc: 1.54
2p( 2.00) rc: 1.54
3d( 0.00) rc: 1.54
4f( 0.00) rc: 1.54
Ground state valence configuration:   1s01
Reading pseudopotential information in formatted form from H.psf

Valence configuration for pseudopotential generation:
1s( 1.00) rc: 1.31
2p( 0.00) rc: 1.31
3d( 0.00) rc: 0.37
4f( 0.00) rc: 1.31
For C, standard SIESTA heuristics set lmxkb to 3
 (one more than the basis l, including polarization orbitals).
Use PS.lmax or PS.KBprojectors blocks to override.
For H, standard SIESTA heuristics set lmxkb to 2
 (one more than the basis l, including polarization orbitals).
Use PS.lmax or PS.KBprojectors blocks to override.

<basis_specs>
===============================================================================
C                    Z=   6    Mass=  12.010        Charge= 0.17977+309
Lmxo=1 Lmxkb= 3    BasisType=split      Semic=F
L=0  Nsemic=0  Cnfigmx=2
          n=1  nzeta=2  polorb=0
            splnorm:   0.15000    
               vcte:    0.0000    
               rinn:    0.0000    
               qcoe:    0.0000    
               qyuk:    0.0000    
               qwid:   0.10000E-01
                rcs:    0.0000      0.0000    
            lambdas:    1.0000      1.0000    
L=1  Nsemic=0  Cnfigmx=2
          n=1  nzeta=2  polorb=1
            splnorm:   0.15000    
               vcte:    0.0000    
               rinn:    0.0000    
               qcoe:    0.0000    
               qyuk:    0.0000    
               qwid:   0.10000E-01
                rcs:    0.0000      0.0000    
            lambdas:    1.0000      1.0000    
-------------------------------------------------------------------------------
L=0  Nkbl=1  erefs: 0.17977+309
L=1  Nkbl=1  erefs: 0.17977+309
L=2  Nkbl=1  erefs: 0.17977+309
L=3  Nkbl=1  erefs: 0.17977+309
===============================================================================
</basis_specs>

atom: Called for C                     (Z =   6)

read_vps: Pseudopotential generation method:
read_vps: ATM3      Troullier-Martins                       
Total valence charge:    4.00000

xc_check: Exchange-correlation functional:
xc_check: Ceperley-Alder
V l=0 = -2*Zval/r beyond r=  1.5227
V l=1 = -2*Zval/r beyond r=  1.5227
V l=2 = -2*Zval/r beyond r=  1.5227
V l=3 = -2*Zval/r beyond r=  1.5038
All V_l potentials equal beyond r=  1.5227
This should be close to max(r_c) in ps generation
All pots = -2*Zval/r beyond r=  1.5227

VLOCAL1: 99.0% of the norm of Vloc inside     18.722 Ry
VLOCAL1: 99.9% of the norm of Vloc inside     42.668 Ry
atom: Maximum radius for 4*pi*r*r*local-pseudopot. charge    1.83678
atom: Maximum radius for r*vlocal+2*Zval:    1.58088
GHOST: No ghost state for L =  0
GHOST: No ghost state for L =  1
GHOST: No ghost state for L =  2
GHOST: No ghost state for L =  3

KBgen: Kleinman-Bylander projectors: 
   l= 0   rc=  1.747182   el= -1.001948   Ekb=  4.950286   kbcos=  0.319819
   l= 1   rc=  1.747182   el= -0.398598   Ekb= -4.108613   kbcos= -0.367053
   l= 2   rc=  1.930978   el=  0.002326   Ekb= -1.042946   kbcos= -0.009366
   l= 3   rc=  2.055542   el=  0.003420   Ekb= -0.408633   kbcos= -0.001262

KBgen: Total number of  Kleinman-Bylander projectors:   16
atom: -------------------------------------------------------------------------

atom: SANKEY-TYPE ORBITALS:
atom: Selected multiple-zeta basis: split     

SPLIT: Orbitals with angular momentum L= 0

SPLIT: Basis orbitals for state 2s

SPLIT: PAO cut-off radius determined from an
SPLIT: energy shift=  0.020000 Ry

   izeta = 1
                 lambda =    1.000000
                     rc =    4.191849
                 energy =   -0.983897
                kinetic =    0.880927
    potential(screened) =   -1.864824
       potential(ionic) =   -5.475687

   izeta = 2
                 rmatch =    3.431921
              splitnorm =    0.150000
                 energy =   -0.853083
                kinetic =    1.298222
    potential(screened) =   -2.151305
       potential(ionic) =   -5.995890

SPLIT: Orbitals with angular momentum L= 1

SPLIT: Basis orbitals for state 2p

SPLIT: PAO cut-off radius determined from an
SPLIT: energy shift=  0.020000 Ry

   izeta = 1
                 lambda =    1.000000
                     rc =    4.870301
                 energy =   -0.379093
                kinetic =    2.540023
    potential(screened) =   -2.919116
       potential(ionic) =   -6.427960

   izeta = 2
                 rmatch =    3.475094
              splitnorm =    0.150000
                 energy =   -0.215057
                kinetic =    3.814571
    potential(screened) =   -4.029628
       potential(ionic) =   -7.920250

POLgen: Perturbative polarization orbital with L=  2

POLgen: Polarization orbital for state 2p

   izeta = 1
                     rc =    4.870301
                 energy =    1.280996
                kinetic =    2.631310
    potential(screened) =   -1.350314
       potential(ionic) =   -4.295640
atom: Total number of Sankey-type orbitals: 13

atm_pop: Valence configuration (for local Pseudopot. screening):
 2s( 2.00)                                                            
 2p( 2.00)                                                            
Vna: chval, zval:    4.00000   4.00000

Vna:  Cut-off radius for the neutral-atom potential:   4.870301

atom: _________________________________________________________________________

<basis_specs>
===============================================================================
H                    Z=   1    Mass=  1.0100        Charge= 0.17977+309
Lmxo=0 Lmxkb= 2    BasisType=split      Semic=F
L=0  Nsemic=0  Cnfigmx=1
          n=1  nzeta=2  polorb=1
            splnorm:   0.15000    
               vcte:    0.0000    
               rinn:    0.0000    
               qcoe:    0.0000    
               qyuk:    0.0000    
               qwid:   0.10000E-01
                rcs:    0.0000      0.0000    
            lambdas:    1.0000      1.0000    
-------------------------------------------------------------------------------
L=0  Nkbl=1  erefs: 0.17977+309
L=1  Nkbl=1  erefs: 0.17977+309
L=2  Nkbl=1  erefs: 0.17977+309
===============================================================================
</basis_specs>

atom: Called for H                     (Z =   1)

read_vps: Pseudopotential generation method:
read_vps: ATM3      Troullier-Martins                       
Total valence charge:    1.00000

xc_check: Exchange-correlation functional:
xc_check: Ceperley-Alder
V l=0 = -2*Zval/r beyond r=  1.2977
V l=1 = -2*Zval/r beyond r=  1.2815
V l=2 = -2*Zval/r beyond r=  1.1307
All V_l potentials equal beyond r=  1.2977
This should be close to max(r_c) in ps generation
All pots = -2*Zval/r beyond r=  1.2977

VLOCAL1: 99.0% of the norm of Vloc inside     25.776 Ry
VLOCAL1: 99.9% of the norm of Vloc inside     58.745 Ry
atom: Maximum radius for 4*pi*r*r*local-pseudopot. charge    1.52711
atom: Maximum radius for r*vlocal+2*Zval:    1.28155
GHOST: No ghost state for L =  0
GHOST: No ghost state for L =  1
GHOST: No ghost state for L =  2

KBgen: Kleinman-Bylander projectors: 
   l= 0   rc=  1.434438   el= -0.467325   Ekb= -1.940326   kbcos= -0.353040
   l= 1   rc=  1.508111   el=  0.001430   Ekb= -0.480826   kbcos= -0.024144
   l= 2   rc=  1.527112   el=  0.002365   Ekb= -0.479392   kbcos= -0.001656

KBgen: Total number of  Kleinman-Bylander projectors:    9
atom: -------------------------------------------------------------------------

atom: SANKEY-TYPE ORBITALS:
atom: Selected multiple-zeta basis: split     

SPLIT: Orbitals with angular momentum L= 0

SPLIT: Basis orbitals for state 1s

SPLIT: PAO cut-off radius determined from an
SPLIT: energy shift=  0.020000 Ry

   izeta = 1
                 lambda =    1.000000
                     rc =    4.828263
                 energy =   -0.449375
                kinetic =    0.925762
    potential(screened) =   -1.375137
       potential(ionic) =   -1.911235

   izeta = 2
                 rmatch =    3.854947
              splitnorm =    0.150000
                 energy =   -0.336149
                kinetic =    1.498089
    potential(screened) =   -1.834238
       potential(ionic) =   -2.406110

POLgen: Perturbative polarization orbital with L=  1

POLgen: Polarization orbital for state 1s

   izeta = 1
                     rc =    4.828263
                 energy =    0.707053
                kinetic =    1.398668
    potential(screened) =   -0.691614
       potential(ionic) =   -1.171973
atom: Total number of Sankey-type orbitals:  5

atm_pop: Valence configuration (for local Pseudopot. screening):
 1s( 1.00)                                                            
Vna: chval, zval:    1.00000   1.00000

Vna:  Cut-off radius for the neutral-atom potential:   4.828263

atom: _________________________________________________________________________

prinput: Basis input ----------------------------------------------------------

PAO.BasisType split     

%block ChemicalSpeciesLabel
    1    6 C                       # Species index, atomic number, species label
    2    1 H                       # Species index, atomic number, species label
%endblock ChemicalSpeciesLabel

%block PAO.Basis                 # Define Basis set
C                     2                    # Species label, number of l-shells
 n=2   0   2                         # n, l, Nzeta 
   4.192      3.432   
   1.000      1.000   
 n=2   1   2 P   1                   # n, l, Nzeta, Polarization, NzetaPol
   4.870      3.475   
   1.000      1.000   
H                     1                    # Species label, number of l-shells
 n=1   0   2 P   1                   # n, l, Nzeta, Polarization, NzetaPol
   4.828      3.855   
   1.000      1.000   
%endblock PAO.Basis

prinput: ----------------------------------------------------------------------

coor:   Atomic-coordinates input format  =     Cartesian coordinates
coor:                                          (in Angstroms)

siesta: Atomic coordinates (Bohr) and species
siesta:      0.59030   0.53175   1.21509  1        1
siesta:      2.63900   0.13978   1.21509  2        2
siesta:      0.40557   2.60678   1.21509  2        3
siesta:     -0.59030  -0.53175  -1.21509  1        4
siesta:     -2.63900  -0.13978  -1.21509  2        5
siesta:     -0.40557  -2.60678  -1.21509  2        6
siesta:      0.59030   0.53175   6.07547  1        7
siesta:      2.63900   0.13978   6.07547  2        8
siesta:      0.40557   2.60678   6.07547  2        9
siesta:     -0.59030  -0.53175   3.64528  1       10
siesta:     -2.63900  -0.13978   3.64528  2       11
siesta:     -0.40557  -2.60678   3.64528  2       12
siesta:      0.59030   0.53175  10.93585  1       13
siesta:      2.63900   0.13978  10.93585  2       14
siesta:      0.40557   2.60678  10.93585  2       15
siesta:     -0.59030  -0.53175   8.50566  1       16
siesta:     -2.63900  -0.13978   8.50566  2       17
siesta:     -0.40557  -2.60678   8.50566  2       18
siesta:      0.59030   0.53175  15.79623  1       19
siesta:      2.63900   0.13978  15.79623  2       20
siesta:      0.40557   2.60678  15.79623  2       21
siesta:     -0.59030  -0.53175  13.36604  1       22
siesta:     -2.63900  -0.13978  13.36604  2       23
siesta:     -0.40557  -2.60678  13.36604  2       24
siesta:      0.59030   0.53175  20.65660  1       25
siesta:      2.63900   0.13978  20.65660  2       26
siesta:      0.40557   2.60678  20.65660  2       27
siesta:     -0.59030  -0.53175  18.22642  1       28
siesta:     -2.63900  -0.13978  18.22642  2       29
siesta:     -0.40557  -2.60678  18.22642  2       30
siesta:      0.59030   0.53175  25.51698  1       31
siesta:      2.63900   0.13978  25.51698  2       32
siesta:      0.40557   2.60678  25.51698  2       33
siesta:     -0.59030  -0.53175  23.08679  1       34
siesta:     -2.63900  -0.13978  23.08679  2       35
siesta:     -0.40557  -2.60678  23.08679  2       36
siesta:      0.59030   0.53175  30.37736  1       37
siesta:      2.63900   0.13978  30.37736  2       38
siesta:      0.40557   2.60678  30.37736  2       39
siesta:     -0.59030  -0.53175  27.94717  1       40
siesta:     -2.63900  -0.13978  27.94717  2       41
siesta:     -0.40557  -2.60678  27.94717  2       42
siesta:      0.59030   0.53175  35.23774  1       43
siesta:      2.63900   0.13978  35.23774  2       44
siesta:      0.40557   2.60678  35.23774  2       45
siesta:     -0.59030  -0.53175  32.80755  1       46
siesta:     -2.63900  -0.13978  32.80755  2       47
siesta:     -0.40557  -2.60678  32.80755  2       48
siesta:      0.59030   0.53175  40.09811  1       49
siesta:      2.63900   0.13978  40.09811  2       50
siesta:      0.40557   2.60678  40.09811  2       51
siesta:     -0.59030  -0.53175  37.66793  1       52
siesta:     -2.63900  -0.13978  37.66793  2       53
siesta:     -0.40557  -2.60678  37.66793  2       54
siesta:      0.59030   0.53175  44.95849  1       55
siesta:      2.63900   0.13978  44.95849  2       56
siesta:      0.40557   2.60678  44.95849  2       57
siesta:     -0.59030  -0.53175  42.52830  1       58
siesta:     -2.63900  -0.13978  42.52830  2       59
siesta:     -0.40557  -2.60678  42.52830  2       60
siesta:      0.59030   0.53175  49.81887  1       61
siesta:      2.63900   0.13978  49.81887  2       62
siesta:      0.40557   2.60678  49.81887  2       63
siesta:     -0.59030  -0.53175  47.38868  1       64
siesta:     -2.63900  -0.13978  47.38868  2       65
siesta:     -0.40557  -2.60678  47.38868  2       66
siesta:      0.59030   0.53175  54.67925  1       67
siesta:      2.63900   0.13978  54.67925  2       68
siesta:      0.40557   2.60678  54.67925  2       69
siesta:     -0.59030  -0.53175  52.24906  1       70
siesta:     -2.63900  -0.13978  52.24906  2       71
siesta:     -0.40557  -2.60678  52.24906  2       72
siesta:      0.59030   0.53175  59.53962  1       73
siesta:      2.63900   0.13978  59.53962  2       74
siesta:      0.40557   2.60678  59.53962  2       75
siesta:     -0.59030  -0.53175  57.10944  1       76
siesta:     -2.63900  -0.13978  57.10944  2       77
siesta:     -0.40557  -2.60678  57.10944  2       78
siesta:      0.59030   0.53175  64.40000  1       79
siesta:      2.63900   0.13978  64.40000  2       80
siesta:      0.40557   2.60678  64.40000  2       81
siesta:     -0.59030  -0.53175  61.96981  1       82
siesta:     -2.63900  -0.13978  61.96981  2       83
siesta:     -0.40557  -2.60678  61.96981  2       84
siesta:      0.59030   0.53175  69.26038  1       85
siesta:      2.63900   0.13978  69.26038  2       86
siesta:      0.40557   2.60678  69.26038  2       87
siesta:     -0.59030  -0.53175  66.83019  1       88
siesta:     -2.63900  -0.13978  66.83019  2       89
siesta:     -0.40557  -2.60678  66.83019  2       90
siesta:      0.59030   0.53175  74.12076  1       91
siesta:      2.63900   0.13978  74.12076  2       92
siesta:      0.40557   2.60678  74.12076  2       93
siesta:     -0.59030  -0.53175  71.69057  1       94
siesta:     -2.63900  -0.13978  71.69057  2       95
siesta:     -0.40557  -2.60678  71.69057  2       96
siesta:      0.59030   0.53175  78.98113  1       97
siesta:      2.63900   0.13978  78.98113  2       98
siesta:      0.40557   2.60678  78.98113  2       99
siesta:     -0.59030  -0.53175  76.55095  1      100
siesta:     -2.63900  -0.13978  76.55095  2      101
siesta:     -0.40557  -2.60678  76.55095  2      102
siesta:      0.59030   0.53175  83.84151  1      103
siesta:      2.63900   0.13978  83.84151  2      104
siesta:      0.40557   2.60678  83.84151  2      105
siesta:     -0.59030  -0.53175  81.41132  1      106
siesta:     -2.63900  -0.13978  81.41132  2      107
siesta:     -0.40557  -2.60678  81.41132  2      108
siesta:      0.59030   0.53175  88.70189  1      109
siesta:      2.63900   0.13978  88.70189  2      110
siesta:      0.40557   2.60678  88.70189  2      111
siesta:     -0.59030  -0.53175  86.27170  1      112
siesta:     -2.63900  -0.13978  86.27170  2      113
siesta:     -0.40557  -2.60678  86.27170  2      114
siesta:      0.59030   0.53175  93.56227  1      115
siesta:      2.63900   0.13978  93.56227  2      116
siesta:      0.40557   2.60678  93.56227  2      117
siesta:     -0.59030  -0.53175  91.13208  1      118
siesta:     -2.63900  -0.13978  91.13208  2      119
siesta:     -0.40557  -2.60678  91.13208  2      120
siesta:      0.59030   0.53175  98.42264  1      121
siesta:      2.63900   0.13978  98.42264  2      122
siesta:      0.40557   2.60678  98.42264  2      123
siesta:     -0.59030  -0.53175  95.99246  1      124
siesta:     -2.63900  -0.13978  95.99246  2      125
siesta:     -0.40557  -2.60678  95.99246  2      126
siesta:      0.59030   0.53175 103.28302  1      127
siesta:      2.63900   0.13978 103.28302  2      128
siesta:      0.40557   2.60678 103.28302  2      129
siesta:     -0.59030  -0.53175 100.85283  1      130
siesta:     -2.63900  -0.13978 100.85283  2      131
siesta:     -0.40557  -2.60678 100.85283  2      132
siesta:      0.59030   0.53175 108.14340  1      133
siesta:      2.63900   0.13978 108.14340  2      134
siesta:      0.40557   2.60678 108.14340  2      135
siesta:     -0.59030  -0.53175 105.71321  1      136
siesta:     -2.63900  -0.13978 105.71321  2      137
siesta:     -0.40557  -2.60678 105.71321  2      138
siesta:      0.59030   0.53175 113.00378  1      139
siesta:      2.63900   0.13978 113.00378  2      140
siesta:      0.40557   2.60678 113.00378  2      141
siesta:     -0.59030  -0.53175 110.57359  1      142
siesta:     -2.63900  -0.13978 110.57359  2      143
siesta:     -0.40557  -2.60678 110.57359  2      144
siesta:      0.59030   0.53175 117.86416  1      145
siesta:      2.63900   0.13978 117.86416  2      146
siesta:      0.40557   2.60678 117.86416  2      147
siesta:     -0.59030  -0.53175 115.43397  1      148
siesta:     -2.63900  -0.13978 115.43397  2      149
siesta:     -0.40557  -2.60678 115.43397  2      150
siesta:      0.59030   0.53175 122.72453  1      151
siesta:      2.63900   0.13978 122.72453  2      152
siesta:      0.40557   2.60678 122.72453  2      153
siesta:     -0.59030  -0.53175 120.29434  1      154
siesta:     -2.63900  -0.13978 120.29434  2      155
siesta:     -0.40557  -2.60678 120.29434  2      156
siesta:      0.59030   0.53175 127.58491  1      157
siesta:      2.63900   0.13978 127.58491  2      158
siesta:      0.40557   2.60678 127.58491  2      159
siesta:     -0.59030  -0.53175 125.15472  1      160
siesta:     -2.63900  -0.13978 125.15472  2      161
siesta:     -0.40557  -2.60678 125.15472  2      162
siesta:      0.59030   0.53175 132.44529  1      163
siesta:      2.63900   0.13978 132.44529  2      164
siesta:      0.40557   2.60678 132.44529  2      165
siesta:     -0.59030  -0.53175 130.01510  1      166
siesta:     -2.63900  -0.13978 130.01510  2      167
siesta:     -0.40557  -2.60678 130.01510  2      168
siesta:      0.59030   0.53175 137.30567  1      169
siesta:      2.63900   0.13978 137.30567  2      170
siesta:      0.40557   2.60678 137.30567  2      171
siesta:     -0.59030  -0.53175 134.87548  1      172
siesta:     -2.63900  -0.13978 134.87548  2      173
siesta:     -0.40557  -2.60678 134.87548  2      174
siesta:      0.59030   0.53175 142.16604  1      175
siesta:      2.63900   0.13978 142.16604  2      176
siesta:      0.40557   2.60678 142.16604  2      177
siesta:     -0.59030  -0.53175 139.73585  1      178
siesta:     -2.63900  -0.13978 139.73585  2      179
siesta:     -0.40557  -2.60678 139.73585  2      180
siesta:      0.59030   0.53175 147.02642  1      181
siesta:      2.63900   0.13978 147.02642  2      182
siesta:      0.40557   2.60678 147.02642  2      183
siesta:     -0.59030  -0.53175 144.59623  1      184
siesta:     -2.63900  -0.13978 144.59623  2      185
siesta:     -0.40557  -2.60678 144.59623  2      186
siesta:      0.59030   0.53175 151.88680  1      187
siesta:      2.63900   0.13978 151.88680  2      188
siesta:      0.40557   2.60678 151.88680  2      189
siesta:     -0.59030  -0.53175 149.45661  1      190
siesta:     -2.63900  -0.13978 149.45661  2      191
siesta:     -0.40557  -2.60678 149.45661  2      192
siesta:      0.59030   0.53175 156.74718  1      193
siesta:      2.63900   0.13978 156.74718  2      194
siesta:      0.40557   2.60678 156.74718  2      195
siesta:     -0.59030  -0.53175 154.31699  1      196
siesta:     -2.63900  -0.13978 154.31699  2      197
siesta:     -0.40557  -2.60678 154.31699  2      198
siesta:      0.59030   0.53175 161.60755  1      199
siesta:      2.63900   0.13978 161.60755  2      200
siesta:      0.40557   2.60678 161.60755  2      201
siesta:     -0.59030  -0.53175 159.17736  1      202
siesta:     -2.63900  -0.13978 159.17736  2      203
siesta:     -0.40557  -2.60678 159.17736  2      204
siesta:      0.59030   0.53175 166.46793  1      205
siesta:      2.63900   0.13978 166.46793  2      206
siesta:      0.40557   2.60678 166.46793  2      207
siesta:     -0.59030  -0.53175 164.03774  1      208
siesta:     -2.63900  -0.13978 164.03774  2      209
siesta:     -0.40557  -2.60678 164.03774  2      210
siesta:      0.59030   0.53175 171.32831  1      211
siesta:      2.63900   0.13978 171.32831  2      212
siesta:      0.40557   2.60678 171.32831  2      213
siesta:     -0.59030  -0.53175 168.89812  1      214
siesta:     -2.63900  -0.13978 168.89812  2      215
siesta:     -0.40557  -2.60678 168.89812  2      216
siesta:      0.59030   0.53175 176.18869  1      217
siesta:      2.63900   0.13978 176.18869  2      218
siesta:      0.40557   2.60678 176.18869  2      219
siesta:     -0.59030  -0.53175 173.75850  1      220
siesta:     -2.63900  -0.13978 173.75850  2      221
siesta:     -0.40557  -2.60678 173.75850  2      222
siesta:      0.59030   0.53175 181.04906  1      223
siesta:      2.63900   0.13978 181.04906  2      224
siesta:      0.40557   2.60678 181.04906  2      225
siesta:     -0.59030  -0.53175 178.61887  1      226
siesta:     -2.63900  -0.13978 178.61887  2      227
siesta:     -0.40557  -2.60678 178.61887  2      228
siesta:      0.59030   0.53175 185.90944  1      229
siesta:      2.63900   0.13978 185.90944  2      230
siesta:      0.40557   2.60678 185.90944  2      231
siesta:     -0.59030  -0.53175 183.47925  1      232
siesta:     -2.63900  -0.13978 183.47925  2      233
siesta:     -0.40557  -2.60678 183.47925  2      234
siesta:      0.59030   0.53175 190.76982  1      235
siesta:      2.63900   0.13978 190.76982  2      236
siesta:      0.40557   2.60678 190.76982  2      237
siesta:     -0.59030  -0.53175 188.33963  1      238
siesta:     -2.63900  -0.13978 188.33963  2      239
siesta:     -0.40557  -2.60678 188.33963  2      240
siesta:      0.59030   0.53175 195.63020  1      241
siesta:      2.63900   0.13978 195.63020  2      242
siesta:      0.40557   2.60678 195.63020  2      243
siesta:     -0.59030  -0.53175 193.20001  1      244
siesta:     -2.63900  -0.13978 193.20001  2      245
siesta:     -0.40557  -2.60678 193.20001  2      246
siesta:      0.59030   0.53175 200.49057  1      247
siesta:      2.63900   0.13978 200.49057  2      248
siesta:      0.40557   2.60678 200.49057  2      249
siesta:     -0.59030  -0.53175 198.06038  1      250
siesta:     -2.63900  -0.13978 198.06038  2      251
siesta:     -0.40557  -2.60678 198.06038  2      252
siesta:      0.59030   0.53175 205.35095  1      253
siesta:      2.63900   0.13978 205.35095  2      254
siesta:      0.40557   2.60678 205.35095  2      255
siesta:     -0.59030  -0.53175 202.92076  1      256
siesta:     -2.63900  -0.13978 202.92076  2      257
siesta:     -0.40557  -2.60678 202.92076  2      258
siesta:      0.59030   0.53175 210.21133  1      259
siesta:      2.63900   0.13978 210.21133  2      260
siesta:      0.40557   2.60678 210.21133  2      261
siesta:     -0.59030  -0.53175 207.78114  1      262
siesta:     -2.63900  -0.13978 207.78114  2      263
siesta:     -0.40557  -2.60678 207.78114  2      264
siesta:      0.59030   0.53175 215.07171  1      265
siesta:      2.63900   0.13978 215.07171  2      266
siesta:      0.40557   2.60678 215.07171  2      267
siesta:     -0.59030  -0.53175 212.64152  1      268
siesta:     -2.63900  -0.13978 212.64152  2      269
siesta:     -0.40557  -2.60678 212.64152  2      270
siesta:      0.59030   0.53175 219.93208  1      271
siesta:      2.63900   0.13978 219.93208  2      272
siesta:      0.40557   2.60678 219.93208  2      273
siesta:     -0.59030  -0.53175 217.50189  1      274
siesta:     -2.63900  -0.13978 217.50189  2      275
siesta:     -0.40557  -2.60678 217.50189  2      276
siesta:      0.59030   0.53175 224.79246  1      277
siesta:      2.63900   0.13978 224.79246  2      278
siesta:      0.40557   2.60678 224.79246  2      279
siesta:     -0.59030  -0.53175 222.36227  1      280
siesta:     -2.63900  -0.13978 222.36227  2      281
siesta:     -0.40557  -2.60678 222.36227  2      282
siesta:      0.59030   0.53175 229.65284  1      283
siesta:      2.63900   0.13978 229.65284  2      284
siesta:      0.40557   2.60678 229.65284  2      285
siesta:     -0.59030  -0.53175 227.22265  1      286
siesta:     -2.63900  -0.13978 227.22265  2      287
siesta:     -0.40557  -2.60678 227.22265  2      288
siesta:      0.59030   0.53175 234.51322  1      289
siesta:      2.63900   0.13978 234.51322  2      290
siesta:      0.40557   2.60678 234.51322  2      291
siesta:     -0.59030  -0.53175 232.08303  1      292
siesta:     -2.63900  -0.13978 232.08303  2      293
siesta:     -0.40557  -2.60678 232.08303  2      294
siesta:      0.59030   0.53175 239.37359  1      295
siesta:      2.63900   0.13978 239.37359  2      296
siesta:      0.40557   2.60678 239.37359  2      297
siesta:     -0.59030  -0.53175 236.94340  1      298
siesta:     -2.63900  -0.13978 236.94340  2      299
siesta:     -0.40557  -2.60678 236.94340  2      300
siesta:      0.59030   0.53175 244.23397  1      301
siesta:      2.63900   0.13978 244.23397  2      302
siesta:      0.40557   2.60678 244.23397  2      303
siesta:     -0.59030  -0.53175 241.80378  1      304
siesta:     -2.63900  -0.13978 241.80378  2      305
siesta:     -0.40557  -2.60678 241.80378  2      306
siesta:      0.59030   0.53175 249.09435  1      307
siesta:      2.63900   0.13978 249.09435  2      308
siesta:      0.40557   2.60678 249.09435  2      309
siesta:     -0.59030  -0.53175 246.66416  1      310
siesta:     -2.63900  -0.13978 246.66416  2      311
siesta:     -0.40557  -2.60678 246.66416  2      312
siesta:      0.59030   0.53175 253.95473  1      313
siesta:      2.63900   0.13978 253.95473  2      314
siesta:      0.40557   2.60678 253.95473  2      315
siesta:     -0.59030  -0.53175 251.52454  1      316
siesta:     -2.63900  -0.13978 251.52454  2      317
siesta:     -0.40557  -2.60678 251.52454  2      318
siesta:      0.59030   0.53175 258.81510  1      319
siesta:      2.63900   0.13978 258.81510  2      320
siesta:      0.40557   2.60678 258.81510  2      321
siesta:     -0.59030  -0.53175 256.38491  1      322
siesta:     -2.63900  -0.13978 256.38491  2      323
siesta:     -0.40557  -2.60678 256.38491  2      324
siesta:      0.59030   0.53175 263.67548  1      325
siesta:      2.63900   0.13978 263.67548  2      326
siesta:      0.40557   2.60678 263.67548  2      327
siesta:     -0.59030  -0.53175 261.24529  1      328
siesta:     -2.63900  -0.13978 261.24529  2      329
siesta:     -0.40557  -2.60678 261.24529  2      330
siesta:      0.59030   0.53175 268.53586  1      331
siesta:      2.63900   0.13978 268.53586  2      332
siesta:      0.40557   2.60678 268.53586  2      333
siesta:     -0.59030  -0.53175 266.10567  1      334
siesta:     -2.63900  -0.13978 266.10567  2      335
siesta:     -0.40557  -2.60678 266.10567  2      336
siesta:      0.59030   0.53175 273.39624  1      337
siesta:      2.63900   0.13978 273.39624  2      338
siesta:      0.40557   2.60678 273.39624  2      339
siesta:     -0.59030  -0.53175 270.96605  1      340
siesta:     -2.63900  -0.13978 270.96605  2      341
siesta:     -0.40557  -2.60678 270.96605  2      342
siesta:      0.59030   0.53175 278.25661  1      343
siesta:      2.63900   0.13978 278.25661  2      344
siesta:      0.40557   2.60678 278.25661  2      345
siesta:     -0.59030  -0.53175 275.82642  1      346
siesta:     -2.63900  -0.13978 275.82642  2      347
siesta:     -0.40557  -2.60678 275.82642  2      348
siesta:      0.59030   0.53175 283.11699  1      349
siesta:      2.63900   0.13978 283.11699  2      350
siesta:      0.40557   2.60678 283.11699  2      351
siesta:     -0.59030  -0.53175 280.68680  1      352
siesta:     -2.63900  -0.13978 280.68680  2      353
siesta:     -0.40557  -2.60678 280.68680  2      354
siesta:      0.59030   0.53175 287.97737  1      355
siesta:      2.63900   0.13978 287.97737  2      356
siesta:      0.40557   2.60678 287.97737  2      357
siesta:     -0.59030  -0.53175 285.54718  1      358
siesta:     -2.63900  -0.13978 285.54718  2      359
siesta:     -0.40557  -2.60678 285.54718  2      360
siesta:      0.59030   0.53175 292.83775  1      361
siesta:      2.63900   0.13978 292.83775  2      362
siesta:      0.40557   2.60678 292.83775  2      363
siesta:     -0.59030  -0.53175 290.40756  1      364
siesta:     -2.63900  -0.13978 290.40756  2      365
siesta:     -0.40557  -2.60678 290.40756  2      366
siesta:      0.59030   0.53175 297.69812  1      367
siesta:      2.63900   0.13978 297.69812  2      368
siesta:      0.40557   2.60678 297.69812  2      369
siesta:     -0.59030  -0.53175 295.26793  1      370
siesta:     -2.63900  -0.13978 295.26793  2      371
siesta:     -0.40557  -2.60678 295.26793  2      372
siesta:      0.59030   0.53175 302.55850  1      373
siesta:      2.63900   0.13978 302.55850  2      374
siesta:      0.40557   2.60678 302.55850  2      375
siesta:     -0.59030  -0.53175 300.12831  1      376
siesta:     -2.63900  -0.13978 300.12831  2      377
siesta:     -0.40557  -2.60678 300.12831  2      378
siesta:      0.59030   0.53175 307.41888  1      379
siesta:      2.63900   0.13978 307.41888  2      380
siesta:      0.40557   2.60678 307.41888  2      381
siesta:     -0.59030  -0.53175 304.98869  1      382
siesta:     -2.63900  -0.13978 304.98869  2      383
siesta:     -0.40557  -2.60678 304.98869  2      384

siesta: System type = chain     

initatomlists: Number of atoms, orbitals, and projectors:    384  2944  4352

siesta: ******************** Simulation parameters ****************************
siesta:
siesta: The following are some of the parameters of the simulation.
siesta: A complete list of the parameters used, including default values,
siesta: can be found in file out.fdf
siesta:
redata: Non-Collinear-spin run           =     F
redata: SpinPolarized (Up/Down) run      =     F
redata: Number of spin components        =     1
redata: Long output                      =     F
redata: Number of Atomic Species         =        2
redata: Charge density info will appear in .RHO file
redata: Write Mulliken Pop.              =     NO
redata: Mesh Cutoff                      =   100.0000  Ry
redata: Net charge of the system         =     0.0000 |e|
redata: Min. number of SCF Iter          =        0
redata: Max. number of SCF Iter          =       50
redata: Mix DM or H after convergence    =     F
redata: Recompute H after scf cycle      =     F
redata: Performing Pulay mixing using    =     3 iterations
redata: Mix DM in first SCF step ?       =     F
redata: Write Pulay info on disk?        =     F
redata: Discard 1st Pulay DM after  kick =     F
redata: New DM Mixing Weight             =     0.3000
redata: New DM Occupancy tolerance       = 0.000000000001
redata: No kicks to SCF
redata: DM Mixing Weight for Kicks       =     0.5000
redata: DM Tolerance for SCF             =     0.000100
redata: Require (free) Energy convergence in SCF =     F
redata: DM (free)Energy tolerance for SCF =     0.000010 eV
redata: Require Harris convergence for SCF =     F
redata: DM Harris energy tolerance for SCF =     0.000010 eV
redata: Using Saved Data (generic)   =     F
redata: Use continuation files for DM    =     F
redata: Neglect nonoverlap interactions  =     F
redata: Method of Calculation            =     QETSc
redata: Fix the spin of the system       =     F
redata: Dynamics option                  =     Single-point calculation
redata: ***********************************************************************
Total number of electrons:   768.000000
Total ionic charge:   768.000000

* ProcessorY, Blocksize:   16  12


* Orbital distribution balance (max,min):    12     0

 Kpoints in:  1 . Kpoints trimmed:  1

siesta: k-grid: Number of k-points =     1
siesta: k-grid: Cutoff (effective) =    10.000 Ang
siesta: k-grid: Supercell and displacements
siesta: k-grid:    1   0   0      0.000
siesta: k-grid:    0   1   0      0.000
siesta: k-grid:    0   0   1      0.000

                     ====================================
                        Single-point calculation
                     ====================================

outcell: Unit cell vectors (Ang):
       20.000000    0.000000    0.000000
        0.000000   20.000000    0.000000
        0.000000    0.000000  164.608000

outcell: Cell vector modules (Ang)   :   20.000000   20.000000  164.608000
outcell: Cell angles (23,13,12) (deg):     90.0000     90.0000     90.0000
outcell: Cell volume (Ang**3)        :  65843.2000
New_DM. Step:     1
Initializing Density Matrix...
New grid distribution:   1
           1       1:   64    1:    4    1:   32
           2       1:   64    1:    4   33:   64
           3       1:   64    1:    4   65:   96
           4       1:   64    1:    4   97:  128
           5       1:   64    1:    4  129:  159
           6       1:   64    1:    4  160:  190
           7       1:   64    1:    4  191:  221
           8       1:   64    1:    4  222:  252
           9       1:   64    1:    4  253:  283
          10       1:   64    1:    4  284:  314
          11       1:   64    1:    4  315:  345
          12       1:   64    1:    4  346:  376
          13       1:   64    1:    4  377:  407
          14       1:   64    1:    4  408:  438
          15       1:   64    1:    4  439:  469
          16       1:   64    1:    4  470:  500
          17       1:   64    5:    8    1:   32
          18       1:   64    5:    8   33:   64
          19       1:   64    5:    8   65:   96
          20       1:   64    5:    8   97:  128
          21       1:   64    5:    8  129:  159
          22       1:   64    5:    8  160:  190
          23       1:   64    5:    8  191:  221
          24       1:   64    5:    8  222:  252
          25       1:   64    5:    8  253:  283
          26       1:   64    5:    8  284:  314
          27       1:   64    5:    8  315:  345
          28       1:   64    5:    8  346:  376
          29       1:   64    5:    8  377:  407
          30       1:   64    5:    8  408:  438
          31       1:   64    5:    8  439:  469
          32       1:   64    5:    8  470:  500
          33       1:   64    9:   12    1:   32
          34       1:   64    9:   12   33:   64
          35       1:   64    9:   12   65:   96
          36       1:   64    9:   12   97:  128
          37       1:   64    9:   12  129:  159
          38       1:   64    9:   12  160:  190
          39       1:   64    9:   12  191:  221
          40       1:   64    9:   12  222:  252
          41       1:   64    9:   12  253:  283
          42       1:   64    9:   12  284:  314
          43       1:   64    9:   12  315:  345
          44       1:   64    9:   12  346:  376
          45       1:   64    9:   12  377:  407
          46       1:   64    9:   12  408:  438
          47       1:   64    9:   12  439:  469
          48       1:   64    9:   12  470:  500
          49       1:   64   13:   16    1:   32
          50       1:   64   13:   16   33:   64
          51       1:   64   13:   16   65:   96
          52       1:   64   13:   16   97:  128
          53       1:   64   13:   16  129:  159
          54       1:   64   13:   16  160:  190
          55       1:   64   13:   16  191:  221
          56       1:   64   13:   16  222:  252
          57       1:   64   13:   16  253:  283
          58       1:   64   13:   16  284:  314
          59       1:   64   13:   16  315:  345
          60       1:   64   13:   16  346:  376
          61       1:   64   13:   16  377:  407
          62       1:   64   13:   16  408:  438
          63       1:   64   13:   16  439:  469
          64       1:   64   13:   16  470:  500
          65       1:   64   17:   20    1:   32
          66       1:   64   17:   20   33:   64
          67       1:   64   17:   20   65:   96
          68       1:   64   17:   20   97:  128
          69       1:   64   17:   20  129:  159
          70       1:   64   17:   20  160:  190
          71       1:   64   17:   20  191:  221
          72       1:   64   17:   20  222:  252
          73       1:   64   17:   20  253:  283
          74       1:   64   17:   20  284:  314
          75       1:   64   17:   20  315:  345
          76       1:   64   17:   20  346:  376
          77       1:   64   17:   20  377:  407
          78       1:   64   17:   20  408:  438
          79       1:   64   17:   20  439:  469
          80       1:   64   17:   20  470:  500
          81       1:   64   21:   24    1:   32
          82       1:   64   21:   24   33:   64
          83       1:   64   21:   24   65:   96
          84       1:   64   21:   24   97:  128
          85       1:   64   21:   24  129:  159
          86       1:   64   21:   24  160:  190
          87       1:   64   21:   24  191:  221
          88       1:   64   21:   24  222:  252
          89       1:   64   21:   24  253:  283
          90       1:   64   21:   24  284:  314
          91       1:   64   21:   24  315:  345
          92       1:   64   21:   24  346:  376
          93       1:   64   21:   24  377:  407
          94       1:   64   21:   24  408:  438
          95       1:   64   21:   24  439:  469
          96       1:   64   21:   24  470:  500
          97       1:   64   25:   28    1:   32
          98       1:   64   25:   28   33:   64
          99       1:   64   25:   28   65:   96
         100       1:   64   25:   28   97:  128
         101       1:   64   25:   28  129:  159
         102       1:   64   25:   28  160:  190
         103       1:   64   25:   28  191:  221
         104       1:   64   25:   28  222:  252
         105       1:   64   25:   28  253:  283
         106       1:   64   25:   28  284:  314
         107       1:   64   25:   28  315:  345
         108       1:   64   25:   28  346:  376
         109       1:   64   25:   28  377:  407
         110       1:   64   25:   28  408:  438
         111       1:   64   25:   28  439:  469
         112       1:   64   25:   28  470:  500
         113       1:   64   29:   32    1:   32
         114       1:   64   29:   32   33:   64
         115       1:   64   29:   32   65:   96
         116       1:   64   29:   32   97:  128
         117       1:   64   29:   32  129:  159
         118       1:   64   29:   32  160:  190
         119       1:   64   29:   32  191:  221
         120       1:   64   29:   32  222:  252
         121       1:   64   29:   32  253:  283
         122       1:   64   29:   32  284:  314
         123       1:   64   29:   32  315:  345
         124       1:   64   29:   32  346:  376
         125       1:   64   29:   32  377:  407
         126       1:   64   29:   32  408:  438
         127       1:   64   29:   32  439:  469
         128       1:   64   29:   32  470:  500
         129       1:   64   33:   36    1:   32
         130       1:   64   33:   36   33:   64
         131       1:   64   33:   36   65:   96
         132       1:   64   33:   36   97:  128
         133       1:   64   33:   36  129:  159
         134       1:   64   33:   36  160:  190
         135       1:   64   33:   36  191:  221
         136       1:   64   33:   36  222:  252
         137       1:   64   33:   36  253:  283
         138       1:   64   33:   36  284:  314
         139       1:   64   33:   36  315:  345
         140       1:   64   33:   36  346:  376
         141       1:   64   33:   36  377:  407
         142       1:   64   33:   36  408:  438
         143       1:   64   33:   36  439:  469
         144       1:   64   33:   36  470:  500
         145       1:   64   37:   40    1:   32
         146       1:   64   37:   40   33:   64
         147       1:   64   37:   40   65:   96
         148       1:   64   37:   40   97:  128
         149       1:   64   37:   40  129:  159
         150       1:   64   37:   40  160:  190
         151       1:   64   37:   40  191:  221
         152       1:   64   37:   40  222:  252
         153       1:   64   37:   40  253:  283
         154       1:   64   37:   40  284:  314
         155       1:   64   37:   40  315:  345
         156       1:   64   37:   40  346:  376
         157       1:   64   37:   40  377:  407
         158       1:   64   37:   40  408:  438
         159       1:   64   37:   40  439:  469
         160       1:   64   37:   40  470:  500
         161       1:   64   41:   44    1:   32
         162       1:   64   41:   44   33:   64
         163       1:   64   41:   44   65:   96
         164       1:   64   41:   44   97:  128
         165       1:   64   41:   44  129:  159
         166       1:   64   41:   44  160:  190
         167       1:   64   41:   44  191:  221
         168       1:   64   41:   44  222:  252
         169       1:   64   41:   44  253:  283
         170       1:   64   41:   44  284:  314
         171       1:   64   41:   44  315:  345
         172       1:   64   41:   44  346:  376
         173       1:   64   41:   44  377:  407
         174       1:   64   41:   44  408:  438
         175       1:   64   41:   44  439:  469
         176       1:   64   41:   44  470:  500
         177       1:   64   45:   48    1:   32
         178       1:   64   45:   48   33:   64
         179       1:   64   45:   48   65:   96
         180       1:   64   45:   48   97:  128
         181       1:   64   45:   48  129:  159
         182       1:   64   45:   48  160:  190
         183       1:   64   45:   48  191:  221
         184       1:   64   45:   48  222:  252
         185       1:   64   45:   48  253:  283
         186       1:   64   45:   48  284:  314
         187       1:   64   45:   48  315:  345
         188       1:   64   45:   48  346:  376
         189       1:   64   45:   48  377:  407
         190       1:   64   45:   48  408:  438
         191       1:   64   45:   48  439:  469
         192       1:   64   45:   48  470:  500
         193       1:   64   49:   52    1:   32
         194       1:   64   49:   52   33:   64
         195       1:   64   49:   52   65:   96
         196       1:   64   49:   52   97:  128
         197       1:   64   49:   52  129:  159
         198       1:   64   49:   52  160:  190
         199       1:   64   49:   52  191:  221
         200       1:   64   49:   52  222:  252
         201       1:   64   49:   52  253:  283
         202       1:   64   49:   52  284:  314
         203       1:   64   49:   52  315:  345
         204       1:   64   49:   52  346:  376
         205       1:   64   49:   52  377:  407
         206       1:   64   49:   52  408:  438
         207       1:   64   49:   52  439:  469
         208       1:   64   49:   52  470:  500
         209       1:   64   53:   56    1:   32
         210       1:   64   53:   56   33:   64
         211       1:   64   53:   56   65:   96
         212       1:   64   53:   56   97:  128
         213       1:   64   53:   56  129:  159
         214       1:   64   53:   56  160:  190
         215       1:   64   53:   56  191:  221
         216       1:   64   53:   56  222:  252
         217       1:   64   53:   56  253:  283
         218       1:   64   53:   56  284:  314
         219       1:   64   53:   56  315:  345
         220       1:   64   53:   56  346:  376
         221       1:   64   53:   56  377:  407
         222       1:   64   53:   56  408:  438
         223       1:   64   53:   56  439:  469
         224       1:   64   53:   56  470:  500
         225       1:   64   57:   60    1:   32
         226       1:   64   57:   60   33:   64
         227       1:   64   57:   60   65:   96
         228       1:   64   57:   60   97:  128
         229       1:   64   57:   60  129:  159
         230       1:   64   57:   60  160:  190
         231       1:   64   57:   60  191:  221
         232       1:   64   57:   60  222:  252
         233       1:   64   57:   60  253:  283
         234       1:   64   57:   60  284:  314
         235       1:   64   57:   60  315:  345
         236       1:   64   57:   60  346:  376
         237       1:   64   57:   60  377:  407
         238       1:   64   57:   60  408:  438
         239       1:   64   57:   60  439:  469
         240       1:   64   57:   60  470:  500
         241       1:   64   61:   64    1:   32
         242       1:   64   61:   64   33:   64
         243       1:   64   61:   64   65:   96
         244       1:   64   61:   64   97:  128
         245       1:   64   61:   64  129:  159
         246       1:   64   61:   64  160:  190
         247       1:   64   61:   64  191:  221
         248       1:   64   61:   64  222:  252
         249       1:   64   61:   64  253:  283
         250       1:   64   61:   64  284:  314
         251       1:   64   61:   64  315:  345
         252       1:   64   61:   64  346:  376
         253       1:   64   61:   64  377:  407
         254       1:   64   61:   64  408:  438
         255       1:   64   61:   64  439:  469
         256       1:   64   61:   64  470:  500

InitMesh: MESH =   128 x   128 x  1000 =    16384000
InitMesh: (bp) =    64 x    64 x   500 =     2048000
InitMesh: Mesh cutoff (required, used) =   100.000   102.000 Ry
ExtMesh (bp) on 0 =   100 x    40 x    64 =      256000
New grid distribution:   2
           1       1:    7    8:   61  220:  234
           2       8:   64    3:    7  235:  250
           3       1:    7    1:    3  454:  469
           4       8:   64    1:    2  110:  125
           5       1:    7    8:   61  376:  390
           6       8:   64    1:    2  173:  188
           7       1:    7   62:   64  423:  438
           8       8:   64    3:    7  251:  266
           9       1:    7    8:   61   95:  109
          10       8:   64    3:    7  173:  188
          11       8:   64    1:    2  439:  454
          12       1:    7   62:   64  485:  500
          13       1:    7    8:   61  251:  265
          14       1:    7   62:   64  439:  454
          15       8:   64    3:    7  439:  454
          16       8:   64    1:    2  485:  500
          17       1:    7    8:   61    1:   15
          18       8:   64    1:    2  126:  141
          19       1:    7    1:    3  470:  485
          20       8:   64    3:    7  126:  141
          21       8:   64    3:    7  142:  157
          22       8:   64    1:    2  142:  157
          23       1:    7    8:   61  205:  219
          24       1:    7   62:   64  391:  406
          25       8:   64    3:    7  267:  282
          26       8:   64    1:    2   17:   32
          27       1:    7    8:   61  330:  344
          28       1:    7   62:   64  157:  172
          29       8:   64    3:    7  298:  313
          30       8:   64    1:    2    1:   16
          31       1:    7    8:   61  455:  469
          32       1:    7   62:   64  141:  156
          33       8:   64    3:    7  189:  204
          34       8:   64    1:    2   48:   63
          35       8:   64    8:   61   79:   94
          36       1:    7   62:   64  173:  188
          37       8:   64    3:    7  314:  329
          38       8:   64    8:   61  157:  172
          39       8:   64    1:    2  376:  391
          40       1:    7    1:    3  142:  157
          41       8:   64    3:    7  423:  438
          42       8:   64    8:   61  298:  313
          43       8:   64    1:    2  392:  407
          44       1:    7    1:    3  126:  141
          45       8:   64    8:   61  376:  391
          46       8:   64    3:    7   64:   79
          47       8:   64    1:    2   64:   79
          48       1:    7    1:    3  173:  188
          49       8:   64    3:    7  485:  500
          50       8:   64    8:   61   32:   47
          51       8:   64    1:    2  314:  329
          52       1:    7   62:   64  189:  204
          53       8:   64    3:    7  110:  125
          54       8:   64    1:    2  423:  438
          55       1:    7    1:    3  251:  266
          56       8:   64    8:   61  220:  235
          57       8:   64    3:    7   48:   63
          58       8:   64    8:   61  282:  297
          59       8:   64    1:    2  360:  375
          60       1:    7    1:    3  204:  219
          61       8:   64    3:    7  392:  407
          62       8:   64    1:    2  298:  313
          63       8:   64    8:   61  454:  469
          64       1:    7    1:    3  220:  235
          65       8:   64    8:   61    1:   16
          66       8:   64    3:    7   17:   32
          67       8:   64    1:    2  235:  250
          68       1:    7   62:   64   16:   31
          69       8:   64    3:    7  360:  375
          70       8:   64    8:   61  173:  188
          71       8:   64    1:    2  267:  282
          72       1:    7    1:    3   48:   63
          73       8:   64    8:   61  251:  266
          74       8:   64    3:    7  376:  391
          75       8:   64    1:    2  251:  266
          76       1:    7    1:    3    1:   16
          77       8:   64    3:    7    1:   16
          78       8:   64    1:    2  189:  204
          79       1:    7    1:    3   17:   32
          80       8:   64    8:   61  470:  485
          81       8:   64    3:    7  283:  297
          82       8:   64    8:   61   48:   63
          83       8:   64    1:    2   80:   94
          84       1:    7   62:   64   64:   79
          85       8:   64    3:    7  345:  359
          86       8:   64    1:    2  205:  219
          87       8:   64    8:   61  204:  219
          88       1:    7    1:    3   95:  110
          89       8:   64    3:    7  158:  172
          90       8:   64    1:    2  470:  484
          91       8:   64    8:   61  329:  344
          92       1:    7   62:   64  110:  125
          93       8:   64    3:    7  205:  219
          94       8:   64    8:   61  407:  422
          95       8:   64    1:    2   95:  109
          96       1:    7   62:   64   48:   63
          97       8:   64    3:    7   33:   47
          98       8:   64    1:    2   33:   47
          99       1:    7    1:    3   79:   94
         100       8:   64    8:   61   95:  110
         101       8:   64    8:   61  126:  141
         102       8:   64    3:    7  455:  469
         103       8:   64    1:    2  330:  344
         104       1:    7    1:    3  329:  344
         105       8:   64    3:    7   95:  109
         106       8:   64    1:    2  408:  422
         107       1:    7    1:    3  345:  360
         108       8:   64    8:   61  345:  360
         109       8:   64    3:    7  470:  484
         110       8:   64    8:   61  423:  438
         111       8:   64    1:    2  220:  234
         112       1:    7   62:   64  266:  281
         113       8:   64    8:   61   17:   31
         114       8:   64    3:    7  408:  422
         115       8:   64    1:    2  158:  172
         116       1:    7   62:   64  282:  297
         117       8:   64    8:   61  142:  156
         118       8:   64    3:    7  330:  344
         119       8:   64    1:    2  455:  469
         120       1:    7    1:    3  392:  407
         121       8:   64    8:   61  267:  281
         122       8:   64    3:    7  220:  234
         123       8:   64    1:    2  283:  297
         124       1:    7    1:    3  376:  391
         125       8:   64    8:   61  392:  406
         126       8:   64    3:    7   80:   94
         127       8:   64    1:    2  345:  359
         128       1:    7    1:    3  423:  438
         129       8:   64   62:   64  220:  235
         130       1:    7    3:    7  408:  422
         131       8:   64    8:   61   64:   78
         132       1:    7   62:   64  314:  329
         133       8:   64   62:   64  423:  438
         134       1:    7    3:    7  283:  297
         135       8:   64    8:   61  189:  203
         136       1:    7   62:   64  360:  375
         137       8:   64   62:   64  329:  344
         138       1:    7    3:    7  158:  172
         139       1:    7    1:    3  298:  313
         140       8:   64    8:   61  361:  375
         141       8:   64   62:   64  470:  485
         142       1:    7    3:    7   33:   47
         143       1:    7    1:    3  267:  282
         144       8:   64    8:   61  486:  500
         145       8:   64   62:   64  407:  422
         146       1:    7    4:    7   79:   94
         147       1:    7   62:   64  470:  484
         148       8:   64    8:   61  111:  125
         149       8:   64   62:   64  282:  297
         150       1:    7    4:    7  267:  282
         151       1:    7   62:   64  330:  344
         152       8:   64    8:   61  236:  250
         153       8:   64   62:   64  157:  172
         154       1:    7    4:    7   95:  110
         155       8:   64    8:   61  314:  328
         156       1:    7   62:   64  455:  469
         157       8:   64   62:   64  173:  188
         158       1:    7    4:    7  376:  391
         159       8:   64    8:   61  439:  453
         160       1:    7    1:    3  111:  125
         161       8:   64   62:   64  298:  313
         162       1:    7    4:    7    1:   16
         163       1:    7    1:    3  439:  453
         164       1:    7    8:   61  110:  125
         165       1:    7    8:   61  141:  156
         166       8:   64   62:   64   79:   94
         167       1:    7    4:    7  423:  438
         168       1:    7   62:   64    1:   15
         169       1:    7    8:   61  266:  281
         170       8:   64   62:   64  251:  266
         171       1:    7    4:    7  392:  407
         172       1:    7   62:   64  205:  219
         173       1:    7    8:   61  391:  406
         174       8:   64   62:   64    1:   16
         175       1:    7    4:    7  220:  235
         176       1:    7   62:   64  220:  234
         177       8:   64   62:   64   95:  110
         178       1:    7    4:    7  251:  266
         179       1:    7    8:   61   64:   79
         180       1:    7    1:    3   64:   78
         181       8:   64   62:   64   32:   47
         182       1:    7    8:   61  157:  172
         183       1:    7    4:    7   17:   32
         184       1:    7   62:   64  345:  359
         185       8:   64   62:   64   48:   63
         186       1:    7    8:   61  298:  313
         187       1:    7    4:    7   48:   63
         188       1:    7   62:   64  126:  140
         189       8:   64   62:   64  376:  391
         190       1:    7    4:    7  454:  469
         191       1:    7    8:   61  439:  454
         192       1:    7   62:   64  251:  265
         193       8:   64   62:   64  267:  281
         194       1:    7    8:   61   48:   63
         195       1:    7    4:    7  345:  360
         196       1:    7    1:    3  314:  328
         197       8:   64   62:   64  189:  203
         198       1:    7    4:    7  126:  141
         199       1:    7    1:    3  486:  500
         200       1:    7    8:   61  235:  250
         201       8:   64   62:   64  361:  375
         202       1:    7    4:    7  298:  313
         203       1:    7    1:    3  189:  203
         204       1:    7    8:   61  360:  375
         205       8:   64   62:   64  392:  406
         206       1:    7    8:   61  407:  422
         207       1:    7    4:    7  329:  344
         208       1:    7   62:   64   95:  109
         209       1:    7    8:   61   16:   31
         210       8:   64   62:   64  236:  250
         211       1:    7    4:    7  204:  219
         212       1:    7    1:    3  236:  250
         213       8:   64   62:   64  314:  328
         214       1:    7    4:    7  470:  485
         215       1:    7    8:   61  189:  204
         216       1:    7   62:   64   80:   94
         217       8:   64   62:   64   64:   78
         218       1:    7    8:   61  282:  297
         219       1:    7    4:    7  173:  188
         220       1:    7   62:   64  376:  390
         221       8:   64   62:   64  439:  453
         222       1:    7    8:   61  423:  438
         223       1:    7    4:    7  142:  157
         224       1:    7    1:    3  361:  375
         225       8:   64   62:   64  111:  125
         226       1:    7    8:   61   32:   47
         227       1:    7    4:    7  314:  328
         228       1:    7    1:    2   33:   47
         229       8:   64   62:   64  486:  500
         230       1:    7    8:   61  173:  188
         231       1:    7    4:    7  486:  500
         232       1:    7    1:    2  408:  422
         233       8:   64   62:   64   17:   31
         234       1:    7    4:    7  189:  203
         235       1:    7    8:   61  314:  329
         236       1:    7    1:    2  158:  172
         237       8:   64   62:   64  142:  156
         238       1:    7    4:    7  361:  375
         239       1:    7    1:    2  283:  297
         240       1:    7    8:   61  485:  500
         241       1:    7    4:    7   64:   78
         242       1:    7   62:   64   32:   47
         243       1:    7    8:   61   80:   94
         244       8:   64   62:   64  126:  141
         245       1:    7    8:   61  126:  140
         246       1:    7    4:    7  111:  125
         247       8:   64   62:   64  204:  219
         248       1:    7   62:   64  235:  250
         249       1:    7    4:    7  439:  453
         250       1:    7   62:   64  298:  313
         251       8:   64   62:   64  345:  360
         252       1:    7    8:   61  345:  359
         253       1:    7    4:    7  236:  250
         254       1:    7   62:   64  407:  422
         255       8:   64   62:   64  454:  469
         256       1:    7    8:   61  470:  484
New grid distribution:   3
           1      39:   64   13:   59  251:  266
           2      12:   64    5:   12  141:  156
           3       1:   38   60:   64    1:   16
           4       1:   11    6:   12  141:  156
           5      39:   64   13:   59   32:   47
           6      12:   64    5:   12  235:  250
           7       1:   36   60:   64   95:  110
           8       1:   11    6:   12  157:  172
           9      39:   64   13:   59  126:  141
          10      12:   64    5:   12  188:  203
          11       1:   36   60:   64   79:   94
          12       1:   11    6:   12  282:  297
          13      39:   64   13:   59  376:  391
          14      12:   64    5:   12   16:   31
          15       1:   36   60:   64  188:  203
          16       1:   11    6:   12   16:   31
          17      39:   64   13:   59    1:   16
          18      12:   64    5:   12   32:   47
          19       1:   36   60:   64  438:  453
          20       1:   11    6:   12   32:   47
          21      39:   64   13:   59  157:  172
          22       1:   36   60:   64  454:  469
          23       1:   11    6:   12   94:  109
          24      12:   64    5:   12  219:  234
          25      39:   64   13:   59  282:  297
          26       1:   36   60:   64   63:   78
          27       1:   11    6:   12  313:  328
          28      12:   64    5:   12  360:  375
          29      39:   64   13:   59  407:  422
          30       1:   36   60:   64  345:  360
          31       1:   11    6:   12  344:  359
          32      12:   64    5:   12  469:  484
          33      39:   64   13:   59   17:   31
          34       1:   36   60:   64  220:  235
          35      12:   64    5:   12   63:   78
          36       1:   11    6:   12  110:  125
          37      39:   64   13:   59  392:  406
          38      12:   64    5:   12  157:  172
          39       1:   36   60:   64  313:  328
          40       1:   11    6:   12  391:  406
          41      39:   64   13:   59  173:  187
          42      12:   64    5:   12  266:  281
          43       1:   36   60:   64  329:  344
          44       1:   11    6:   12  360:  375
          45      39:   64   13:   59  267:  281
          46       1:   36   60:   64  204:  219
          47      12:   64    5:   12  438:  453
          48       1:   11    6:   12  438:  453
          49      12:   64    5:   12  110:  125
          50       1:   38   13:   59   47:   62
          51       1:   38   60:   64  407:  421
          52       1:   11    6:   12  485:  500
          53       1:   38   13:   59  126:  141
          54      12:   64    5:   12  344:  359
          55       1:   38   60:   64  392:  406
          56       1:   11    6:   12  188:  203
          57      12:   64    5:   12  282:  297
          58       1:   38   13:   59  297:  312
          59       1:   38   60:   64   17:   31
          60       1:   11    6:   12  469:  484
          61       1:   38   13:   59  376:  391
          62      12:   64    5:   12  313:  328
          63       1:   38   60:   64   32:   46
          64       1:   11    6:   12   63:   78
          65       1:   38   13:   59    1:   16
          66      12:   64    5:   12  391:  406
          67       1:   38   60:   64  282:  296
          68       1:   11    6:   12  266:  281
          69      12:   64    5:   12  485:  500
          70       1:   38   13:   59  172:  187
          71       1:   38   60:   64  267:  281
          72       1:   11    6:   12  219:  234
          73       1:   38   13:   59  251:  266
          74      12:   64    5:   12   94:  109
          75       1:   38   60:   64  142:  156
          76       1:   11    6:   12  235:  250
          77      12:   64    5:   12  407:  422
          78       1:   38   13:   59  422:  437
          79       1:   38   60:   64  157:  171
          80       1:   11    6:   12  407:  422
          81      12:   64    5:   12  376:  390
          82       1:   36   60:   64  486:  500
          83       1:   11    6:   12  454:  468
          84       1:   36   13:   59   95:  110
          85      12:   64    5:   12   48:   62
          86       1:   36   60:   64  361:  375
          87       1:   36   13:   59  204:  219
          88       1:   11    6:   12   48:   62
          89      12:   64    5:   12  423:  437
          90       1:   36   60:   64  236:  250
          91       1:   11    6:   12   79:   93
          92       1:   36   13:   59  345:  360
          93      12:   64    5:   12  298:  312
          94       1:   36   60:   64  111:  125
          95       1:   36   13:   59  454:  469
          96       1:   11    6:   12    1:   15
          97      12:   64    5:   12  329:  343
          98      37:   64   60:   64  313:  328
          99       1:   36   13:   59   79:   94
         100       1:   11    6:   12  423:  437
         101      12:   64    5:   12   79:   93
         102      37:   64   60:   64  329:  344
         103       1:   36   13:   59  188:  203
         104       1:   11    6:   12  298:  312
         105      12:   64    5:   12  454:  468
         106      37:   64   60:   64  360:  375
         107       1:   36   13:   59  313:  328
         108       1:   11    6:   12  173:  187
         109      12:   64    5:   12    1:   15
         110      37:   64   60:   64  204:  219
         111       1:   11    6:   12  204:  218
         112       1:   36   13:   59  470:  485
         113      12:   64    5:   12  173:  187
         114      37:   64   60:   64  188:  203
         115       1:   36   13:   59   63:   78
         116       1:   11    6:   12  251:  265
         117      12:   64    5:   12  204:  218
         118      37:   64   60:   64  438:  453
         119       1:   11    6:   12  376:  390
         120       1:   36   13:   59  220:  235
         121      12:   64    5:   12  251:  265
         122      37:   64   60:   64  235:  250
         123       1:   36   13:   59  329:  344
         124       1:   11    6:   12  329:  343
         125      12:   64    5:   12  126:  140
         126      37:   64   60:   64   79:   94
         127       1:   36   13:   59  438:  453
         128       1:   11    6:   12  126:  140
         129       1:   38   13:   59   17:   31
         130      12:   64    1:    4  266:  281
         131      37:   64   60:   64   63:   78
         132       1:   11    1:    5  282:  297
         133       1:   38   13:   59  142:  156
         134      12:   64    1:    4  282:  297
         135      37:   64   60:   64  454:  469
         136       1:   11    1:    5  266:  281
         137       1:   38   13:   59  267:  281
         138      12:   64    1:    4  360:  375
         139      37:   64   60:   64  110:  125
         140       1:   11    1:    5   63:   78
         141      12:   64    1:    4  219:  234
         142       1:   38   13:   59  407:  421
         143      37:   64   60:   64  485:  500
         144       1:   11    1:    5  235:  250
         145      12:   64    1:    4  188:  203
         146       1:   38   13:   59   32:   46
         147      37:   64   60:   64  345:  359
         148       1:   11    1:    5   32:   47
         149      12:   64    1:    4  235:  250
         150       1:   38   13:   59  157:  171
         151      37:   64   60:   64  470:  484
         152       1:   11    1:    5  313:  328
         153      12:   64    1:    4  110:  125
         154       1:   38   13:   59  282:  296
         155      37:   64   60:   64  220:  234
         156       1:   11    1:    5  360:  375
         157       1:   38   13:   59  392:  406
         158      12:   64    1:    4  344:  359
         159      37:   64   60:   64   95:  109
         160       1:   11    1:    5  344:  359
         161      12:   64    1:    4   94:  109
         162      39:   64   60:   64  407:  422
         163       1:   11    1:    5   16:   31
         164       1:   36   13:   59  111:  125
         165      12:   64    1:    4  141:  156
         166      39:   64   60:   64  376:  391
         167       1:   11    1:    5  407:  422
         168       1:   36   13:   59  236:  250
         169      12:   64    1:    4  407:  422
         170      39:   64   60:   64  126:  141
         171       1:   11    1:    5  157:  172
         172       1:   36   13:   59  361:  375
         173      12:   64    1:    4  438:  453
         174      39:   64   60:   64  157:  172
         175       1:   11    1:    5  438:  453
         176       1:   36   13:   59  486:  500
         177      12:   64    1:    4  469:  484
         178      39:   64   60:   64  251:  266
         179      37:   64   13:   59   79:   94
         180       1:   11    1:    5   94:  109
         181      12:   64    1:    4   63:   78
         182      39:   64   60:   64   32:   47
         183      37:   64   13:   59  188:  203
         184       1:   11    1:    5  110:  125
         185      12:   64    1:    4   32:   47
         186      39:   64   60:   64    1:   16
         187      37:   64   13:   59  313:  328
         188       1:   11    1:    5  141:  156
         189      12:   64    1:    4  485:  500
         190      39:   64   60:   64  282:  297
         191      37:   64   13:   59  454:  469
         192       1:   11    1:    5  485:  500
         193      12:   64    1:    4   16:   31
         194      39:   64   60:   64  173:  187
         195       1:   11    1:    5  469:  484
         196      37:   64   13:   59  110:  125
         197      12:   64    1:    4  313:  328
         198      39:   64   60:   64   17:   31
         199       1:   11    1:    5  219:  234
         200      37:   64   13:   59  235:  250
         201      12:   64    1:    4  391:  406
         202      39:   64   60:   64  423:  437
         203       1:   11    1:    5  391:  406
         204      37:   64   13:   59  360:  375
         205      12:   64    1:    4  157:  172
         206      39:   64   60:   64  392:  406
         207       1:   11    1:    5  188:  203
         208      37:   64   13:   59  485:  500
         209      12:   64    1:    4  376:  390
         210      39:   64   60:   64  267:  281
         211      37:   64   13:   59   63:   78
         212       1:   11    1:    5  173:  187
         213      12:   64    1:    4  173:  187
         214      39:   64   60:   64  142:  156
         215      37:   64   13:   59  204:  219
         216       1:   11    1:    5  126:  140
         217      12:   64    1:    4  126:  140
         218      39:   64   60:   64   48:   62
         219      37:   64   13:   59  329:  344
         220       1:   11    1:    5  204:  218
         221      12:   64    1:    4   48:   62
         222      39:   64   60:   64  298:  312
         223      37:   64   13:   59  438:  453
         224       1:   11    1:    5   48:   62
         225      12:   64    1:    4  329:  343
         226       1:   38   60:   64   47:   62
         227       1:   11    1:    5    1:   15
         228      37:   64   13:   59   95:  109
         229      12:   64    1:    4  454:  468
         230       1:   38   60:   64  172:  187
         231       1:   11    1:    5   79:   93
         232      37:   64   13:   59  220:  234
         233      12:   64    1:    4  251:  265
         234       1:   38   60:   64  297:  312
         235       1:   11    1:    5  423:  437
         236      37:   64   13:   59  345:  359
         237      12:   64    1:    4  423:  437
         238       1:   38   60:   64  422:  437
         239       1:   11    1:    5  376:  390
         240      37:   64   13:   59  470:  484
         241      39:   64   13:   59   48:   62
         242      12:   64    1:    4  298:  312
         243       1:   11    1:    5  454:  468
         244       1:   38   60:   64  126:  141
         245      39:   64   13:   59  298:  312
         246      12:   64    1:    4  204:  218
         247       1:   11    1:    5  298:  312
         248       1:   38   60:   64  251:  266
         249      39:   64   13:   59  142:  156
         250      12:   64    1:    4   79:   93
         251       1:   11    1:    5  251:  265
         252       1:   38   60:   64  376:  391
         253      39:   64   13:   59  423:  437
         254      12:   64    1:    4    1:   15
         255       1:   11    1:    5  329:  343
         256       1:   36   60:   64  470:  485
Setting up quadratic distribution...
ExtMesh (bp) on 0 =    43 x    90 x    47 =      181890
PhiOnMesh: Number of (b)points on node 0 =                 5670
PhiOnMesh: nlist on node 0 =                26403
QETSC: Last update           = Dec 15, 2016
QETSC: Number of ranks       =         256
QETSC: Number of slices      =          64
QETSC: Number of ranks/slice =           4
QETSC: Number of evals/slice =   6.00
QETSC: Number of req. evals  =         384
QETSC: Number of rows (all)  =        2944
QETSC: Number of rows (max)  =          12
QETSC: Number of rows (min)  =           0
QETSC: Density option        =           0
QETSC: Bin type given        =           7
QETSC: Inertia type          =           1
QETSC: Infinity type         =           2
QETSC: Write option          =           1
QETSC: Bin buffer given      =   0.10
QETSC: Diff thresh           =   0.02
QETSC: Number of nonzeros    =      609408
QETSC: Nonzero % (all)       =   7.03
QETSC: Nonzero % (max)       =   7.03
QETSC: Nonzero % (min)       =   7.03
 QETSC: Shifts, inertias         =
      -INF     0
    -2.300     0
    -2.263     0
    -2.227     0
    -2.190     0
    -2.154     0
    -2.117     0
    -2.081     0
    -2.044     0
    -2.008     0
    -1.971     0
    -1.935     0
    -1.898     0
    -1.862     0
    -1.825     0
    -1.789     0
    -1.752     0
    -1.716     0
    -1.679     0
    -1.643    23
    -1.606    31
    -1.570    39
    -1.533    45
    -1.497    51
    -1.460    57
    -1.424    61
    -1.387    65
    -1.351    71
    -1.314    75
    -1.278    81
    -1.241   100
    -1.205   128
    -1.168   128
    -1.132   128
    -1.095   128
    -1.059   141
    -1.022   155
    -0.986   171
    -0.949   199
    -0.913   219
    -0.876   237
    -0.840   255
    -0.803   279
    -0.767   311
    -0.730   379
    -0.694   384
    -0.657   384
    -0.621   384
    -0.584   384
    -0.548   384
    -0.511   384
    -0.475   384
    -0.438   384
    -0.402   384
    -0.365   384
    -0.329   384
    -0.292   384
    -0.256   384
    -0.219   384
    -0.183   384
    -0.146   384
    -0.110   384
    -0.073   384
    -0.037   384
     0.000   384
 QETSc: Custers,iter,crange,npcmax,trial 1 0.125467346938775530E-01 12 6
-1.6682539682539681E+00
-1.6555555555555554E+00
-1.6428571428571428E+00
-1.6291666666666667E+00
-1.6154761904761903E+00
-1.6017857142857141E+00
-1.5880952380952380E+00
-1.5744047619047619E+00
-1.5576719576719575E+00
-1.5394179894179894E+00
-1.5211640211640212E+00
-1.5029100529100530E+00
-1.4846560846560846E+00
-1.4664021164021164E+00
-1.4511904761904761E+00
-1.4329365079365077E+00
-1.4146825396825395E+00
-1.3964285714285714E+00
-1.3751322751322750E+00
-1.3568783068783068E+00
-1.3416666666666666E+00
-1.3234126984126984E+00
-1.3021164021164020E+00
-1.2838624338624338E+00
-1.2662489557226400E+00
-1.2527986633249790E+00
-1.2386621315192743E+00
-1.2256235827664399E+00
-1.2125850340136055E+00
-1.2060657596371882E+00
-1.0840048840048839E+00
-1.0699633699633699E+00
-1.0561224489795920E+00
-1.0430839002267573E+00
-1.0300453514739227E+00
-1.0153769841269842E+00
-1.0016865079365078E+00
-9.8799603174603179E-01
-9.7397959183673466E-01
-9.6094104308390027E-01
-9.4738095238095232E-01
-9.3460317460317455E-01
-9.2182539682539677E-01
-9.0864197530864199E-01
-8.9444444444444438E-01
-8.8024691358024687E-01
-8.6604938271604937E-01
-8.5185185185185186E-01
-8.3816137566137572E-01
-8.2447089947089947E-01
-8.1078042328042332E-01
-7.9747023809523809E-01
-7.8492063492063502E-01
-7.7237103174603183E-01
-7.6290849673202621E-01
-7.5646591970121391E-01
-7.5002334267040160E-01
-7.4358076563958919E-01
-7.3713818860877689E-01
-7.3069561157796459E-01
-7.2285714285714286E-01
-7.0825396825396825E-01
-6.9365079365079363E-01
 QETSC: Bins             =
                   -INF
-1.6793650793650792E+00
-1.6657142857142855E+00
-1.6530158730158728E+00
-1.6401190476190475E+00
-1.6264285714285713E+00
-1.6127380952380950E+00
-1.5990476190476188E+00
-1.5853571428571427E+00
-1.5710582010582010E+00
-1.5540211640211639E+00
-1.5357671957671957E+00
-1.5175132275132275E+00
-1.4992592592592593E+00
-1.4810052910052909E+00
-1.4633597883597884E+00
-1.4475396825396825E+00
-1.4292857142857140E+00
-1.4110317460317459E+00
-1.3921693121693122E+00
-1.3714814814814813E+00
-1.3538359788359788E+00
-1.3380158730158729E+00
-1.3191534391534392E+00
-1.2984656084656083E+00
-1.2803397382344750E+00
-1.2635588972431078E+00
-1.2499713569638380E+00
[...]

                         Max       Max/Min        Avg      Total 
Time (sec):           5.404e+01      1.00000   5.404e+01
Objects:              2.366e+03      1.06529   2.358e+03
Flops:                1.269e+09   2226.94103   8.451e+08  2.163e+11
Flops/sec:            2.349e+07   2226.94087   1.564e+07  4.003e+09
MPI Messages:         1.998e+04      3.05287   1.487e+04  3.806e+06
MPI Message Lengths:  2.481e+07      2.49630   1.290e+03  4.910e+09
MPI Reductions:       1.069e+04      1.40029

Flop counting convention: 1 flop = 1 real number operation of type (multiply/divide/add/subtract)
                            e.g., VecAXPY() for real vectors of length N --> 2N flops
                            and VecAXPY() for complex vectors of length N --> 8N flops

Summary of Stages:   ----- Time ------  ----- Flops -----  --- Messages ---  -- Message Lengths --  -- Reductions --
                        Avg     %Total     Avg     %Total   counts   %Total     Avg         %Total   counts   %Total 
 0:      Main Stage: 1.9633e-04   0.0%  0.0000e+00   0.0%  0.000e+00   0.0%  0.000e+00        0.0%  0.000e+00   0.0% 
 1:     siesta_init: 2.8067e+00   5.2%  0.0000e+00   0.0%  0.000e+00   0.0%  0.000e+00        0.0%  0.000e+00   0.0% 
 2:   siesta_forces: 1.2969e+01  24.0%  0.0000e+00   0.0%  0.000e+00   0.0%  0.000e+00        0.0%  0.000e+00   0.0% 
 3:    siesta_solve: 9.7600e-04   0.0%  0.0000e+00   0.0%  0.000e+00   0.0%  0.000e+00        0.0%  0.000e+00   0.0% 
 4:    siesta2qetsc: 4.6224e-02   0.1%  0.0000e+00   0.0%  1.952e+04   0.5%  2.051e-01        0.0%  5.300e+01   0.7% 
 5: qetsc_setup_eps: 2.5689e+00   4.8%  1.5676e+08   0.1%  8.105e+05  21.3%  6.217e+02       48.2%  3.000e+02   3.9% 
 6: qetsc_solve_eps: 2.0835e+01  38.6%  2.1618e+11  99.9%  1.554e+06  40.8%  6.411e+02       49.7%  2.530e+03  33.1% 
 7:   qetsc_eigvals: 6.6170e-03   0.0%  0.0000e+00   0.0%  0.000e+00   0.0%  0.000e+00        0.0%  0.000e+00   0.0% 
 8:   qetsc_density: 4.7916e+00   8.9%  0.0000e+00   0.0%  1.422e+06  37.4%  2.694e+01        2.1%  6.932e+03  90.7% 
10:     siesta_misc: 7.7375e+00  14.3%  0.0000e+00   0.0%  0.000e+00   0.0%  0.000e+00        0.0%  0.000e+00   0.0% 
11:     siesta_move: 1.2113e-01   0.2%  0.0000e+00   0.0%  0.000e+00   0.0%  0.000e+00        0.0%  0.000e+00   0.0% 
12: siesta_analysis: 5.5793e-03   0.0%  0.0000e+00   0.0%  0.000e+00   0.0%  0.000e+00        0.0%  0.000e+00   0.0% 
13:     qetsc_clean: 3.2997e-06   0.0%  0.0000e+00   0.0%  0.000e+00   0.0%  0.000e+00        0.0%  0.000e+00   0.0% 
14:      siesta_end: 2.1508e+00   4.0%  0.0000e+00   0.0%  0.000e+00   0.0%  0.000e+00        0.0%  0.000e+00   0.0% 

------------------------------------------------------------------------------------------------------------------------
See the 'Profiling' chapter of the users' manual for details on interpreting output.
Phase summary info:
   Count: number of times phase was executed
   Time and Flops: Max - maximum over all processors
                   Ratio - ratio of maximum to minimum over all processors
   Mess: number of messages sent
   Avg. len: average message length (bytes)
   Reduct: number of global reductions
   Global: entire computation
   Stage: stages of a computation. Set stages with PetscLogStagePush() and PetscLogStagePop().
      %T - percent time in this phase         %F - percent flops in this phase
      %M - percent messages in this phase     %L - percent message lengths in this phase
      %R - percent reductions in this phase
   Total Mflop/s: 10e-6 * (sum of flops over all processors)/(max time over all processors)
------------------------------------------------------------------------------------------------------------------------
Event                Count      Time (sec)     Flops                             --- Global ---  --- Stage ---   Total
                   Max Ratio  Max     Ratio   Max  Ratio  Mess   Avg len Reduct  %T %F %M %L %R  %T %F %M %L %R Mflop/s
------------------------------------------------------------------------------------------------------------------------

--- Event Stage 0: Main Stage


--- Event Stage 1: siesta_init


--- Event Stage 2: siesta_forces


--- Event Stage 3: siesta_solve


--- Event Stage 4: siesta2qetsc

MatConvert             2 1.0 1.1779e-03 1.2 0.00e+00 0.0 0.0e+00 0.0e+00 0.0e+00  0  0  0  0  0   2  0  0  0  0     0
MatAssemblyBegin      10 1.0 2.8357e-0211.1 0.00e+00 0.0 0.0e+00 0.0e+00 4.0e+01  0  0  0  0  1  39  0  0  0 75     0
MatAssemblyEnd        10 1.0 3.6937e-03 1.0 0.00e+00 0.0 2.0e+04 4.0e+01 1.1e+01  0  0  1  0  0   8  0100100 21     0
VecSet                 3 1.0 1.2938e-05 1.8 0.00e+00 0.0 0.0e+00 0.0e+00 0.0e+00  0  0  0  0  0   0  0  0  0  0     0

--- Event Stage 5: qetsc_setup_eps

MatCholFctrSym         1 1.0 1.1261e-01 1.0 0.00e+00 0.0 0.0e+00 0.0e+00 5.0e+00  0  0  0  0  0   4  0  0  0  2     0
MatCholFctrNum         5 1.0 1.0422e+00 1.0 0.00e+00 0.0 0.0e+00 0.0e+00 0.0e+00  2  0  0  0  0  40  0  0  0  0     0
MatCopy                4 1.0 1.7076e-01 1.0 0.00e+00 0.0 0.0e+00 0.0e+00 2.4e+01  0  0  0  0  0   7  0  0  0  8     0
MatConvert             1 1.0 6.1425e-03 3.2 0.00e+00 0.0 0.0e+00 0.0e+00 0.0e+00  0  0  0  0  0   0  0  0  0  0     0
MatScale              16 1.0 2.4183e-03 3.8 6.55e+05 1.1 0.0e+00 0.0e+00 0.0e+00  0  0  0  0  0   0100  0  0  0 64823
MatAssemblyBegin      29 1.0 2.2969e-0174.1 0.00e+00 0.0 0.0e+00 0.0e+00 7.6e+01  0  0  0  0  1   3  0  0  0 25     0
MatAssemblyEnd        29 1.0 3.9517e-02 1.2 0.00e+00 0.0 1.9e+04 2.7e+02 8.8e+01  0  0  1  0  1   1  0  2  0 29     0
MatGetRow          10304 1.0 1.6819e-01 1.2 0.00e+00 0.0 0.0e+00 0.0e+00 0.0e+00  0  0  0  0  0   6  0  0  0  0     0
MatGetSubMatrice      10 1.0 4.3562e-01 2.7 0.00e+00 0.0 7.9e+05 3.0e+03 2.0e+01  0  0 21 48  0  10  0 98100  7     0
MatZeroEntries         4 1.0 1.8047e-03 1.3 0.00e+00 0.0 0.0e+00 0.0e+00 0.0e+00  0  0  0  0  0   0  0  0  0  0     0
MatAXPY               13 1.0 4.3457e-01 1.0 0.00e+00 0.0 1.2e+04 2.7e+02 8.0e+01  1  0  0  0  1  17  0  2  0 27     0
MatRedundantMat       10 1.0 7.7892e-01 1.4 0.00e+00 0.0 8.0e+05 3.0e+03 1.0e+02  1  0 21 48  1  25  0 98100 35     0
MatMPIConcateSeq      10 1.0 5.5264e-01 1.6 0.00e+00 0.0 7.3e+03 2.7e+02 8.5e+01  1  0  0  0  1  15  0  1  0 28     0
VecSet                10 1.0 4.3625e-05 1.9 0.00e+00 0.0 0.0e+00 0.0e+00 0.0e+00  0  0  0  0  0   0  0  0  0  0     0
EPSSetUp               5 1.0 2.0944e+00 1.0 0.00e+00 0.0 1.8e+05 2.7e+03 2.4e+02  4  0  5 10  3  80  0 22 20 78     0
STSetUp               10 1.0 1.7638e+00 1.0 0.00e+00 0.0 1.2e+04 2.7e+02 1.1e+02  3  0  0  0  1  68  0  2  0 38     0
KSPSetUp               5 1.0 1.1029e-05 2.1 0.00e+00 0.0 0.0e+00 0.0e+00 0.0e+00  0  0  0  0  0   0  0  0  0  0     0
PCSetUp                5 1.0 1.1616e+00 1.0 0.00e+00 0.0 0.0e+00 0.0e+00 5.0e+00  2  0  0  0  0  45  0  0  0  2     0

--- Event Stage 6: qetsc_solve_eps

MatMult             2886 0.0 4.1000e+00 0.0 9.38e+08 0.0 1.0e+06 7.4e+02 0.0e+00  5 73 27 16  0  13 73 67 31  0 38415
MatSolve            1086 0.0 9.9197e+00 0.0 0.00e+00 0.0 5.0e+05 3.4e+03 7.7e+02 13  0 13 34 10  34  0 32 68 31     0
MatCholFctrNum         9 1.0 1.8495e+00 1.0 0.00e+00 0.0 0.0e+00 0.0e+00 0.0e+00  3  0  0  0  0   9  0  0  0  0     0
MatCopy                9 1.0 3.8406e-01 1.0 0.00e+00 0.0 0.0e+00 0.0e+00 5.4e+01  1  0  0  0  1   2  0  0  0  2     0
MatAssemblyBegin      18 1.0 1.7881e-0161.8 0.00e+00 0.0 0.0e+00 0.0e+00 7.2e+01  0  0  0  0  1   0  0  0  0  3     0
MatAssemblyEnd        18 1.0 3.0410e-02 1.0 0.00e+00 0.0 2.2e+04 2.7e+02 1.1e+02  0  0  1  0  1   0  0  1  0  4     0
MatGetRow          19872 1.0 3.2031e-01 1.2 0.00e+00 0.0 0.0e+00 0.0e+00 0.0e+00  1  0  0  0  0   1  0  0  0  0     0
MatZeroEntries         9 1.0 4.2530e-03 1.1 0.00e+00 0.0 0.0e+00 0.0e+00 0.0e+00  0  0  0  0  0   0  0  0  0  0     0
MatAXPY                9 1.0 7.7543e-01 1.0 0.00e+00 0.0 2.2e+04 2.7e+02 1.4e+02  1  0  1  0  2   4  0  1  0  6     0
VecDot               149 0.0 2.6144e-02 0.0 2.19e+05 0.0 0.0e+00 0.0e+00 5.4e+01  0  0  0  0  1   0  0  0  0  2   778
VecCopy               18 0.0 7.6770e-05 0.0 0.00e+00 0.0 0.0e+00 0.0e+00 0.0e+00  0  0  0  0  0   0  0  0  0  0     0
VecSet              97531083.7 2.1960e-021096.4 0.00e+00 0.0 0.0e+00 0.0e+00 0.0e+00  0  0  0  0  0   0  0  0  0  0     0
VecScatterBegin     5058 0.0 3.5551e-01 0.0 0.00e+00 0.0 1.5e+06 1.6e+03 7.6e+02  0  0 40 49 10   1  0 98100 30     0
VecScatterEnd       3972 0.0 5.0771e-01 0.0 0.00e+00 0.0 0.0e+00 0.0e+00 0.0e+00  0  0  0  0  0   1  0  0  0  0     0
VecSetRandom           9 0.0 4.0033e-03 0.0 0.00e+00 0.0 0.0e+00 0.0e+00 0.0e+00  0  0  0  0  0   0  0  0  0  0     0
EPSSetUp               9 1.0 3.7689e+00 1.2 0.00e+00 0.0 2.3e+04 2.6e+02 3.1e+02  7  0  1  0  4  18  0  1  0 12     0
EPSSolve               9 1.0 2.0881e+01 1.0 1.27e+09 0.0 1.6e+06 1.6e+03 2.5e+03 39100 41 50 33 100100100100100 10353
STSetUp               13 1.0 1.3382e+00 1.0 0.00e+00 0.0 9.7e+03 2.7e+02 8.8e+01  2  0  0  0  1   6  0  1  0  3     0
STApply             1086 0.0 1.1476e+01 0.0 3.53e+08 0.0 8.8e+05 2.2e+03 7.7e+02 15 27 23 40 10  39 27 57 80 31  5130
STMatSolve          1086 0.0 1.0075e+01 0.0 0.00e+00 0.0 5.0e+05 3.4e+03 7.7e+02 13  0 13 34 10  34  0 32 68 31     0
KSPSetUp               9 1.0 1.7956e-05 2.1 0.00e+00 0.0 0.0e+00 0.0e+00 0.0e+00  0  0  0  0  0   0  0  0  0  0     0
KSPSolve            1086 0.0 9.9575e+00 0.0 0.00e+00 0.0 5.0e+05 3.4e+03 7.7e+02 13  0 13 34 10  34  0 32 68 31     0
PCSetUp                9 1.0 1.8497e+00 1.0 0.00e+00 0.0 0.0e+00 0.0e+00 0.0e+00  3  0  0  0  0   9  0  0  0  0     0
PCApply             1086 0.0 9.9238e+00 0.0 0.00e+00 0.0 5.0e+05 3.4e+03 7.7e+02 13  0 13 34 10  34  0 32 68 31     0
BVCreate              18 0.0 8.8677e-03 0.0 0.00e+00 0.0 0.0e+00 0.0e+00 1.0e+02  0  0  0  0  1   0  0  0  0  4     0
BVCopy                18 0.0 2.1335e-04 0.0 0.00e+00 0.0 0.0e+00 0.0e+00 0.0e+00  0  0  0  0  0   0  0  0  0  0     0
BVMultVec           1673 0.0 1.7653e-01 0.0 1.16e+08 0.0 0.0e+00 0.0e+00 0.0e+00  0  9  0  0  0   0  9  0  0  0 105821
BVMultInPlace         18 0.0 4.4681e-02 0.0 9.56e+07 0.0 0.0e+00 0.0e+00 0.0e+00  0 10  0  0  0   0 10  0  0  0 463273
BVDotVec            1673 0.0 2.5801e+00 0.0 6.62e+08 0.0 6.2e+05 7.4e+02 1.2e+03  3 52 16  9 16   9 53 40 19 48 44014
BVOrthogonalizeV     959 0.0 2.7659e+00 0.0 7.78e+08 0.0 6.2e+05 7.4e+02 1.2e+03  4 61 16  9 16   9 61 40 19 48 47813
BVScale             1086 0.0 6.0433e-03 0.0 7.99e+05 0.0 0.0e+00 0.0e+00 0.0e+00  0  0  0  0  0   0  0  0  0  0 23589
BVNormVec            149 0.0 2.2026e-01 0.0 4.87e+07 0.0 2.8e+04 7.4e+02 5.4e+01  0  2  1  0  1   0  2  2  1  2 19170
BVSetRandom            9 0.0 4.1043e-03 0.0 0.00e+00 0.0 0.0e+00 0.0e+00 0.0e+00  0  0  0  0  0   0  0  0  0  0     0
DSSolve               18 0.0 1.7360e-01 0.0 0.00e+00 0.0 0.0e+00 0.0e+00 0.0e+00  0  0  0  0  0   1  0  0  0  0     0
DSVectors           1176 0.0 2.8715e-03 0.0 0.00e+00 0.0 0.0e+00 0.0e+00 0.0e+00  0  0  0  0  0   0  0  0  0  0     0
DSOther               18 0.0 5.0364e-03 0.0 0.00e+00 0.0 0.0e+00 0.0e+00 0.0e+00  0  0  0  0  0   0  0  0  0  0     0

--- Event Stage 7: qetsc_eigvals


--- Event Stage 8: qetsc_density

VecCopy             3456 1.0 6.6134e-03 1.6 0.00e+00 0.0 0.0e+00 0.0e+00 0.0e+00  0  0  0  0  0   0  0  0  0  0     0
VecSet                 1 1.0 1.2053e-05 2.6 0.00e+00 0.0 0.0e+00 0.0e+00 0.0e+00  0  0  0  0  0   0  0  0  0  0     0
VecScatterBegin     6912 1.0 1.6761e+00 2.5 0.00e+00 0.0 8.5e+05 9.5e+01 3.5e+03  1  0 22  2 45  15  0 60 79 50     0
VecScatterEnd       3456 1.0 1.1075e+00308.3 0.00e+00 0.0 0.0e+00 0.0e+00 0.0e+00  2  0  0  0  0  21  0  0  0  0     0
BVCopy              3456 1.0 2.3071e-02 1.2 0.00e+00 0.0 0.0e+00 0.0e+00 0.0e+00  0  0  0  0  0   0  0  0  0  0     0

--- Event Stage 9: Unknown


--- Event Stage 10: siesta_misc


--- Event Stage 11: siesta_move


--- Event Stage 12: siesta_analysis


--- Event Stage 13: qetsc_clean


--- Event Stage 14: siesta_end

------------------------------------------------------------------------------------------------------------------------

Memory usage is given in bytes:

Object Type          Creations   Destructions     Memory  Descendants' Mem.
Reports information only for process 0.

--- Event Stage 0: Main Stage


--- Event Stage 1: siesta_init


--- Event Stage 2: siesta_forces


--- Event Stage 3: siesta_solve


--- Event Stage 4: siesta2qetsc

              Matrix     9              0            0     0.
              Vector    19              1         1648     0.
      Vector Scatter     4              0            0     0.
           Index Set     4              4         7816     0.

--- Event Stage 5: qetsc_setup_eps

              Matrix    31             15      6332352     0.
              Vector   107             63       258448     0.
      Vector Scatter    18              9         9648     0.
           Index Set    61             54        77664     0.
          EPS Solver     2              0            0     0.
  Spectral Transform     2              0            0     0.
       Krylov Solver     2              0            0     0.
      Preconditioner     2              0            0     0.
       Basis Vectors     7              4         4224     0.
         PetscRandom     1              0            0     0.
              Region     2              0            0     0.
       Direct Solver     2              0            0     0.

--- Event Stage 6: qetsc_solve_eps

              Matrix    27             27     11652084     0.
              Vector   117            117       492120     0.
      Vector Scatter    18             18        19296     0.
           Index Set    36             36        67968     0.
       Basis Vectors     9              9         9504     0.

--- Event Stage 7: qetsc_eigvals


--- Event Stage 8: qetsc_density

              Vector    10              9        67824     0.
      Vector Scatter   577            576       618336     0.
           Index Set  1153           1153       959248     0.

--- Event Stage 9: Unknown


--- Event Stage 10: siesta_misc


--- Event Stage 11: siesta_move

              Matrix     0             25     10316584     0.
              Vector     0             63       776192     0.
      Vector Scatter     0             14        14176     0.
           Index Set     0              7         5488     0.
          EPS Solver     0              2        25144     0.
  Spectral Transform     0              2         1632     0.
       Krylov Solver     0              2         2336     0.
      Preconditioner     0              2         1952     0.
       Basis Vectors     0              3         3168     0.
         PetscRandom     0              1          638     0.
              Region     0              2         1312     0.
       Direct Solver     0              2       109992     0.

--- Event Stage 12: siesta_analysis


--- Event Stage 13: qetsc_clean


--- Event Stage 14: siesta_end

              Viewer     1              0            0     0.
========================================================================================================================
Average time to get PetscTime(): 1.24437e-07
Average time for MPI_Barrier(): 3.12125e-06
Average time for zero size MPI_Send(): 1.13625e-05
#PETSc Option Table entries:
-eps_interval -2.3,0.
-eps_krylovschur_detect_zeros 0
-eps_krylovschur_partitions 64
-ioptbin 7
-ioptdensity 0
-ioptinertia 1
-ioptleft 2
-ioptwrite 1
-log_view
-mat_mumps_cntl_3 1e-12
-mat_mumps_icntl_13 1
-mat_mumps_icntl_23 0
-mat_mumps_icntl_24 1
-mat_mumps_icntl_7 5
-mat_type mpisbaij
#End of PETSc Option Table entries
Compiled with FORTRAN kernels
Compiled with full precision matrices (default)
sizeof(short) 2 sizeof(int) 4 sizeof(long) 8 sizeof(void*) 8 sizeof(PetscScalar) 8 sizeof(PetscInt) 4
Configure options: --known-has-attribute-aligned=1 --download-chaco=0 --download-cmake=0 --download-hypre=0 --download-metis=1 --download-mumps=1 --download-parmetis=1 --download-plapack=0 --download-prometheus=0 --download-ptscotch=1 --download-spai=0 --download-spooles=0 --download-superlu=0 --download-superlu_dist=0 --download-triangle=0 --known-bits-per-byte=8 --known-level1-dcache-assoc=0 --known-level1-dcache-linesize=32 --known-level1-dcache-size=32768 --known-memcmp-ok=1 --known-mpi-c-double-complex=1 --known-mpi-int64_t=1 --known-mpi-long-double=1 --known-mpi-shared-libraries=0 --known-sdot-returns-double=0 --known-sizeof-MPI_Comm=4 --known-sizeof-MPI_Fint=4 --known-sizeof-char=1 --known-sizeof-double=8 --known-sizeof-float=4 --known-sizeof-int=4 --known-sizeof-long-long=8 --known-sizeof-long=8 --known-sizeof-short=2 --known-sizeof-size_t=8 --known-sizeof-void-p=8 --known-snrm2-returns-double=0 --with-batch=1 --with-blacs-include=/soft/libraries/alcf/current/xl/SCALAPACK/ --with-blacs-lib=/soft/libraries/alcf/current/xl/SCALAPACK/lib/libscalapack.a --with-blas-lapack-lib="-L/soft/libraries/alcf/current/xl/LAPACK/lib -llapack -L/soft/libraries/alcf/current/xl/BLAS/lib -lblas" --with-cc=mpixlc_r --with-clib-autodetect=0 --with-cxx=mpixlcxx_r --with-cxxlib-autodetect=0 --with-debugging=0 --with-fc="mpixlf77_r -qnosave" --with-fortran-kernels=1 --with-fortranlib-autodetect=0 --with-is-color-value-type=short --with-scalapack-include=/soft/libraries/alcf/current/xl/SCALAPACK/ --with-scalapack-lib=/soft/libraries/alcf/current/xl/SCALAPACK/lib/libscalapack.a --with-shared-libraries=0 --with-x=0 -COPTFLAGS=" -g -O3 -qhot=level=0 -qsimd=auto -qmaxmem=-1 -qstrict -qstrict_induction" -CXXOPTFLAGS="  -g -O3 -qhot=level=0 -qsimd=auto -qmaxmem=-1 -qstrict -qstrict_induction" -FOPTFLAGS=" -g -O3 -qhot=level=0 -qsimd=auto -qmaxmem=-1 -qstrict -qstrict_induction" LIBS="-lmpichcxx-gcc -lmpichf77-gcc -L/soft/compilers/ibmcmp-feb2015/vacpp/bg/12.1/bglib64 -libmc++ -L/soft/compilers/ibmcmp-feb2015/xlf/bg/14.1/bglib64 -lxlf90_r -lxlomp_ser -lxlfmath" PETSC_ARCH=arch-xl
-----------------------------------------
Libraries compiled on Sat Aug 20 04:19:47 2016 on vestalac2 
Machine characteristics: Linux-2.6.32-573.18.1.el6.ppc64-ppc64-with-redhat-6.7-Santiago
Using PETSc directory: /home/keceli/scratch2/petsc
Using PETSc arch: arch-xl
-----------------------------------------

Using C compiler: mpixlc_r   -g -O3 -qhot=level=0 -qsimd=auto -qmaxmem=-1 -qstrict -qstrict_induction  ${COPTFLAGS} ${CFLAGS}
Using Fortran compiler: mpixlf77_r -qnosave  -g -O3 -qhot=level=0 -qsimd=auto -qmaxmem=-1 -qstrict -qstrict_induction   ${FOPTFLAGS} ${FFLAGS} 
-----------------------------------------

Using include paths: -I/home/keceli/scratch2/petsc/arch-xl/include -I/home/keceli/scratch2/petsc/include -I/home/keceli/scratch2/petsc/include -I/home/keceli/scratch2/petsc/arch-xl/include -I/bgsys/drivers/V1R2M4/ppc64/comm/include -I/bgsys/drivers/V1R2M4/ppc64/comm/lib/xl -I/bgsys/drivers/V1R2M4/ppc64 -I/bgsys/drivers/V1R2M4/ppc64/comm/sys/include -I/bgsys/drivers/V1R2M4/ppc64/spi/include -I/bgsys/drivers/V1R2M4/ppc64/spi/include/kernel/cnk
-----------------------------------------

Using C linker: mpixlc_r
Using Fortran linker: mpixlf77_r -qnosave
Using libraries: -Wl,-rpath,/home/keceli/scratch2/petsc/arch-xl/lib -L/home/keceli/scratch2/petsc/arch-xl/lib -lpetsc -Wl,-rpath,/home/keceli/scratch2/petsc/arch-xl/lib -L/home/keceli/scratch2/petsc/arch-xl/lib -lcmumps -ldmumps -lsmumps -lzmumps -lmumps_common -lpord -Wl,-rpath,/soft/libraries/alcf/current/xl/SCALAPACK/lib -L/soft/libraries/alcf/current/xl/SCALAPACK/lib -lscalapack -L/soft/libraries/alcf/current/xl/LAPACK/lib -llapack -L/soft/libraries/alcf/current/xl/BLAS/lib -lblas -lparmetis -lmetis -lptesmumps -lptscotch -lptscotcherr -lscotch -lscotcherr -lrt -lm -lpthread -ldl -lmpichcxx-gcc -lmpichf77-gcc -L/soft/compilers/ibmcmp-feb2015/vacpp/bg/12.1/bglib64 -libmc++ -L/soft/compilers/ibmcmp-feb2015/xlf/bg/14.1/bglib64 -lxlf90_r -lxlomp_ser -lxlfmath
-----------------------------------------

