s.subSiesta: Submission time = 25s56m22h
s.subSiesta: Job name = qp64_s16_n1_c16_vesta
s.subSiesta: Number of nodes = 1
s.subSiesta: Number of cores = 16
s.subSiesta: Number of cores/node = 16
s.subSiesta: Number of slices = 16
s.subSiesta: Mapping = ABCDET
25s56m22h
#QETSc options
-ioptbin 7
-ioptdensity 0
-ioptinertia 1
-ioptleft 2
-ioptwrite 1 
#-roptbuffer 0.01
#-roptdiff 0.02

#PETSc options
-mat_type mpisbaij
-log_view
#-mat_view
#-memory_view
#-mat_mumps_icntl_13 1 #turn off scaLAPACK for matrix inertia
#-mat_mumps_icntl_24 1 #null pivot row detection for matrix inertia
-mat_mumps_icntl_23 0
#-mat_mumps_icntl_28 1 # serial analysis
#-mat_mumps_icntl_28 2 #parallel analysis
#-mat_mumps_icntl_29 1 #ptscotch
#-mat_mumps_icntl_29 2 #parmetis
-mat_mumps_icntl_7 5 #metis
#-malloc_info 
#-mat_view ::ascii_info 
#-mat_getrow_uppertriangular 1
#-st_type sinvert 
#-st_ksp_type preonly 
#-st_pc_type cholesky 
#-st_pc_factor_mat_solver_package mumps 

#SLEPc options

#-eps_krylovschur_partitions 1  
-eps_interval -2.3,0.
#-eps_tol  1.e-8
-eps_krylovschur_detect_zeros 0
#-eps_purify 1
SystemName          polyethylene
SystemLabel         polyethylene
NumberOfAtoms       6
NumberOfSpecies     2

%block ChemicalSpeciesLabel
 1  6  C
 2  1  H
%endblock ChemicalSpeciesLabel

DM.MixingWeight 0.3
DM.NumberPulay 3
#BlockSize 23
SolutionMethod  qetsc
WriteDM .false.
WriteDM.NetCDF .false.
WriteDMHS.NetCDF .false.
LongOutput .false.
#MaxSCFIterations 1

PAO.BasisType split
PAO.BasisSize DZP

LatticeConstant 1.00 Ang
%block LatticeVectors
20.000  0.000  0.000
 0.000 20.000  0.000
 0.000  0.000  2.572
%endblock LatticeVectors

%block kgrid_Monkhorst_Pack
1 0 0 0.0
0 1 0 0.0
0 0 1 0.0
%endblock kgrid_Monkhorst_Pack

%block SuperCell
1 0 0
0 1 0
0 0 64
%endblock SuperCell

AtomicCoordinatesFormat Ang
%block AtomicCoordinatesAndAtomicSpecies
  0.31237500000000001       0.28138740000000001       0.64300000000000002     1
   1.3964999999999999        7.3970400000000006E-002  0.64300000000000002     2
  0.21462000000000001        1.3794480000000002       0.64300000000000002     2
 -0.31237500000000001      -0.28138740000000001      -0.64300000000000002     1
  -1.3964999999999999       -7.3970400000000006E-002 -0.64300000000000002     2
 -0.21462000000000001       -1.3794480000000002      -0.64300000000000002     2
%endblock AtomicCoordinatesAndAtomicSpecies
Siesta Version: siesta-trunk-492
Architecture  : powerpc64-unknown-linux-gnu--Xlf
Compiler flags: mpixlf90_r -I/home/keceli/scratch2/petsc/include -I/home/keceli/scratch2/petssc/arch-xl/include -I/bgsys/drivers/V1R2M4/ppc64/comm/include -I/bgsys/drivers/V1R2M4/ppc64/comm/lib/xl -I/bgsys/drivers/V1R2M4/ppc64 -I/bgsys/drivers/V1R2M4/ppc64/comm/sys/include -I/bgsys/drivers/V1R2M4/ppc64/spi/include -I/bgsys/drivers/V1R2M4/ppc64/spi/include/kernel/cnk -I/home/keceli/scratch2/slepcfork/include -I/home/keceli/scratch2/slepcfork/arch-xl/include
PP flags      : -WF,-DMPI -WF,-DFC_HAVE_ABORT -WF,-DBSC_CELLXC -WF,-DMPI_TIMING 
PARALLEL version

* Running on   16 nodes in parallel
>> Start of run:   3-JAN-2017  22:57:29

                           ***********************       
                           *  WELCOME TO SIESTA  *       
                           ***********************       
WARNING: Siesta is reading its input from file INPUT_DEBUG

reinit: -----------------------------------------------------------------------
reinit: System Name: polyethylene
reinit: -----------------------------------------------------------------------
reinit: System Label: polyethylene                                                
reinit: -----------------------------------------------------------------------

initatom: Reading input for the pseudopotentials and atomic orbitals ----------
Species number:   1 Atomic number:    6 Label: C
Species number:   2 Atomic number:    1 Label: H
 
Ground state valence configuration:   2s02  2p02
Reading pseudopotential information in formatted form from C.psf

Valence configuration for pseudopotential generation:
2s( 2.00) rc: 1.54
2p( 2.00) rc: 1.54
3d( 0.00) rc: 1.54
4f( 0.00) rc: 1.54
Ground state valence configuration:   1s01
Reading pseudopotential information in formatted form from H.psf

Valence configuration for pseudopotential generation:
1s( 1.00) rc: 1.31
2p( 0.00) rc: 1.31
3d( 0.00) rc: 0.37
4f( 0.00) rc: 1.31
For C, standard SIESTA heuristics set lmxkb to 3
 (one more than the basis l, including polarization orbitals).
Use PS.lmax or PS.KBprojectors blocks to override.
For H, standard SIESTA heuristics set lmxkb to 2
 (one more than the basis l, including polarization orbitals).
Use PS.lmax or PS.KBprojectors blocks to override.

<basis_specs>
===============================================================================
C                    Z=   6    Mass=  12.010        Charge= 0.17977+309
Lmxo=1 Lmxkb= 3    BasisType=split      Semic=F
L=0  Nsemic=0  Cnfigmx=2
          n=1  nzeta=2  polorb=0
            splnorm:   0.15000    
               vcte:    0.0000    
               rinn:    0.0000    
               qcoe:    0.0000    
               qyuk:    0.0000    
               qwid:   0.10000E-01
                rcs:    0.0000      0.0000    
            lambdas:    1.0000      1.0000    
L=1  Nsemic=0  Cnfigmx=2
          n=1  nzeta=2  polorb=1
            splnorm:   0.15000    
               vcte:    0.0000    
               rinn:    0.0000    
               qcoe:    0.0000    
               qyuk:    0.0000    
               qwid:   0.10000E-01
                rcs:    0.0000      0.0000    
            lambdas:    1.0000      1.0000    
-------------------------------------------------------------------------------
L=0  Nkbl=1  erefs: 0.17977+309
L=1  Nkbl=1  erefs: 0.17977+309
L=2  Nkbl=1  erefs: 0.17977+309
L=3  Nkbl=1  erefs: 0.17977+309
===============================================================================
</basis_specs>

atom: Called for C                     (Z =   6)

read_vps: Pseudopotential generation method:
read_vps: ATM3      Troullier-Martins                       
Total valence charge:    4.00000

xc_check: Exchange-correlation functional:
xc_check: Ceperley-Alder
V l=0 = -2*Zval/r beyond r=  1.5227
V l=1 = -2*Zval/r beyond r=  1.5227
V l=2 = -2*Zval/r beyond r=  1.5227
V l=3 = -2*Zval/r beyond r=  1.5038
All V_l potentials equal beyond r=  1.5227
This should be close to max(r_c) in ps generation
All pots = -2*Zval/r beyond r=  1.5227

VLOCAL1: 99.0% of the norm of Vloc inside     18.722 Ry
VLOCAL1: 99.9% of the norm of Vloc inside     42.668 Ry
atom: Maximum radius for 4*pi*r*r*local-pseudopot. charge    1.83678
atom: Maximum radius for r*vlocal+2*Zval:    1.58088
GHOST: No ghost state for L =  0
GHOST: No ghost state for L =  1
GHOST: No ghost state for L =  2
GHOST: No ghost state for L =  3

KBgen: Kleinman-Bylander projectors: 
   l= 0   rc=  1.747182   el= -1.001948   Ekb=  4.950286   kbcos=  0.319819
   l= 1   rc=  1.747182   el= -0.398598   Ekb= -4.108613   kbcos= -0.367053
   l= 2   rc=  1.930978   el=  0.002326   Ekb= -1.042946   kbcos= -0.009366
   l= 3   rc=  2.055542   el=  0.003420   Ekb= -0.408633   kbcos= -0.001262

KBgen: Total number of  Kleinman-Bylander projectors:   16
atom: -------------------------------------------------------------------------

atom: SANKEY-TYPE ORBITALS:
atom: Selected multiple-zeta basis: split     

SPLIT: Orbitals with angular momentum L= 0

SPLIT: Basis orbitals for state 2s

SPLIT: PAO cut-off radius determined from an
SPLIT: energy shift=  0.020000 Ry

   izeta = 1
                 lambda =    1.000000
                     rc =    4.191849
                 energy =   -0.983897
                kinetic =    0.880927
    potential(screened) =   -1.864824
       potential(ionic) =   -5.475687

   izeta = 2
                 rmatch =    3.431921
              splitnorm =    0.150000
                 energy =   -0.853083
                kinetic =    1.298222
    potential(screened) =   -2.151305
       potential(ionic) =   -5.995890

SPLIT: Orbitals with angular momentum L= 1

SPLIT: Basis orbitals for state 2p

SPLIT: PAO cut-off radius determined from an
SPLIT: energy shift=  0.020000 Ry

   izeta = 1
                 lambda =    1.000000
                     rc =    4.870301
                 energy =   -0.379093
                kinetic =    2.540023
    potential(screened) =   -2.919116
       potential(ionic) =   -6.427960

   izeta = 2
                 rmatch =    3.475094
              splitnorm =    0.150000
                 energy =   -0.215057
                kinetic =    3.814571
    potential(screened) =   -4.029628
       potential(ionic) =   -7.920250

POLgen: Perturbative polarization orbital with L=  2

POLgen: Polarization orbital for state 2p

   izeta = 1
                     rc =    4.870301
                 energy =    1.280996
                kinetic =    2.631310
    potential(screened) =   -1.350314
       potential(ionic) =   -4.295640
atom: Total number of Sankey-type orbitals: 13

atm_pop: Valence configuration (for local Pseudopot. screening):
 2s( 2.00)                                                            
 2p( 2.00)                                                            
Vna: chval, zval:    4.00000   4.00000

Vna:  Cut-off radius for the neutral-atom potential:   4.870301

atom: _________________________________________________________________________

<basis_specs>
===============================================================================
H                    Z=   1    Mass=  1.0100        Charge= 0.17977+309
Lmxo=0 Lmxkb= 2    BasisType=split      Semic=F
L=0  Nsemic=0  Cnfigmx=1
          n=1  nzeta=2  polorb=1
            splnorm:   0.15000    
               vcte:    0.0000    
               rinn:    0.0000    
               qcoe:    0.0000    
               qyuk:    0.0000    
               qwid:   0.10000E-01
                rcs:    0.0000      0.0000    
            lambdas:    1.0000      1.0000    
-------------------------------------------------------------------------------
L=0  Nkbl=1  erefs: 0.17977+309
L=1  Nkbl=1  erefs: 0.17977+309
L=2  Nkbl=1  erefs: 0.17977+309
===============================================================================
</basis_specs>

atom: Called for H                     (Z =   1)

read_vps: Pseudopotential generation method:
read_vps: ATM3      Troullier-Martins                       
Total valence charge:    1.00000

xc_check: Exchange-correlation functional:
xc_check: Ceperley-Alder
V l=0 = -2*Zval/r beyond r=  1.2977
V l=1 = -2*Zval/r beyond r=  1.2815
V l=2 = -2*Zval/r beyond r=  1.1307
All V_l potentials equal beyond r=  1.2977
This should be close to max(r_c) in ps generation
All pots = -2*Zval/r beyond r=  1.2977

VLOCAL1: 99.0% of the norm of Vloc inside     25.776 Ry
VLOCAL1: 99.9% of the norm of Vloc inside     58.745 Ry
atom: Maximum radius for 4*pi*r*r*local-pseudopot. charge    1.52711
atom: Maximum radius for r*vlocal+2*Zval:    1.28155
GHOST: No ghost state for L =  0
GHOST: No ghost state for L =  1
GHOST: No ghost state for L =  2

KBgen: Kleinman-Bylander projectors: 
   l= 0   rc=  1.434438   el= -0.467325   Ekb= -1.940326   kbcos= -0.353040
   l= 1   rc=  1.508111   el=  0.001430   Ekb= -0.480826   kbcos= -0.024144
   l= 2   rc=  1.527112   el=  0.002365   Ekb= -0.479392   kbcos= -0.001656

KBgen: Total number of  Kleinman-Bylander projectors:    9
atom: -------------------------------------------------------------------------

atom: SANKEY-TYPE ORBITALS:
atom: Selected multiple-zeta basis: split     

SPLIT: Orbitals with angular momentum L= 0

SPLIT: Basis orbitals for state 1s

SPLIT: PAO cut-off radius determined from an
SPLIT: energy shift=  0.020000 Ry

   izeta = 1
                 lambda =    1.000000
                     rc =    4.828263
                 energy =   -0.449375
                kinetic =    0.925762
    potential(screened) =   -1.375137
       potential(ionic) =   -1.911235

   izeta = 2
                 rmatch =    3.854947
              splitnorm =    0.150000
                 energy =   -0.336149
                kinetic =    1.498089
    potential(screened) =   -1.834238
       potential(ionic) =   -2.406110

POLgen: Perturbative polarization orbital with L=  1

POLgen: Polarization orbital for state 1s

   izeta = 1
                     rc =    4.828263
                 energy =    0.707053
                kinetic =    1.398668
    potential(screened) =   -0.691614
       potential(ionic) =   -1.171973
atom: Total number of Sankey-type orbitals:  5

atm_pop: Valence configuration (for local Pseudopot. screening):
 1s( 1.00)                                                            
Vna: chval, zval:    1.00000   1.00000

Vna:  Cut-off radius for the neutral-atom potential:   4.828263

atom: _________________________________________________________________________

prinput: Basis input ----------------------------------------------------------

PAO.BasisType split     

%block ChemicalSpeciesLabel
    1    6 C                       # Species index, atomic number, species label
    2    1 H                       # Species index, atomic number, species label
%endblock ChemicalSpeciesLabel

%block PAO.Basis                 # Define Basis set
C                     2                    # Species label, number of l-shells
 n=2   0   2                         # n, l, Nzeta 
   4.192      3.432   
   1.000      1.000   
 n=2   1   2 P   1                   # n, l, Nzeta, Polarization, NzetaPol
   4.870      3.475   
   1.000      1.000   
H                     1                    # Species label, number of l-shells
 n=1   0   2 P   1                   # n, l, Nzeta, Polarization, NzetaPol
   4.828      3.855   
   1.000      1.000   
%endblock PAO.Basis

prinput: ----------------------------------------------------------------------

coor:   Atomic-coordinates input format  =     Cartesian coordinates
coor:                                          (in Angstroms)

siesta: Atomic coordinates (Bohr) and species
siesta:      0.59030   0.53175   1.21509  1        1
siesta:      2.63900   0.13978   1.21509  2        2
siesta:      0.40557   2.60678   1.21509  2        3
siesta:     -0.59030  -0.53175  -1.21509  1        4
siesta:     -2.63900  -0.13978  -1.21509  2        5
siesta:     -0.40557  -2.60678  -1.21509  2        6
siesta:      0.59030   0.53175   6.07547  1        7
siesta:      2.63900   0.13978   6.07547  2        8
siesta:      0.40557   2.60678   6.07547  2        9
siesta:     -0.59030  -0.53175   3.64528  1       10
siesta:     -2.63900  -0.13978   3.64528  2       11
siesta:     -0.40557  -2.60678   3.64528  2       12
siesta:      0.59030   0.53175  10.93585  1       13
siesta:      2.63900   0.13978  10.93585  2       14
siesta:      0.40557   2.60678  10.93585  2       15
siesta:     -0.59030  -0.53175   8.50566  1       16
siesta:     -2.63900  -0.13978   8.50566  2       17
siesta:     -0.40557  -2.60678   8.50566  2       18
siesta:      0.59030   0.53175  15.79623  1       19
siesta:      2.63900   0.13978  15.79623  2       20
siesta:      0.40557   2.60678  15.79623  2       21
siesta:     -0.59030  -0.53175  13.36604  1       22
siesta:     -2.63900  -0.13978  13.36604  2       23
siesta:     -0.40557  -2.60678  13.36604  2       24
siesta:      0.59030   0.53175  20.65660  1       25
siesta:      2.63900   0.13978  20.65660  2       26
siesta:      0.40557   2.60678  20.65660  2       27
siesta:     -0.59030  -0.53175  18.22642  1       28
siesta:     -2.63900  -0.13978  18.22642  2       29
siesta:     -0.40557  -2.60678  18.22642  2       30
siesta:      0.59030   0.53175  25.51698  1       31
siesta:      2.63900   0.13978  25.51698  2       32
siesta:      0.40557   2.60678  25.51698  2       33
siesta:     -0.59030  -0.53175  23.08679  1       34
siesta:     -2.63900  -0.13978  23.08679  2       35
siesta:     -0.40557  -2.60678  23.08679  2       36
siesta:      0.59030   0.53175  30.37736  1       37
siesta:      2.63900   0.13978  30.37736  2       38
siesta:      0.40557   2.60678  30.37736  2       39
siesta:     -0.59030  -0.53175  27.94717  1       40
siesta:     -2.63900  -0.13978  27.94717  2       41
siesta:     -0.40557  -2.60678  27.94717  2       42
siesta:      0.59030   0.53175  35.23774  1       43
siesta:      2.63900   0.13978  35.23774  2       44
siesta:      0.40557   2.60678  35.23774  2       45
siesta:     -0.59030  -0.53175  32.80755  1       46
siesta:     -2.63900  -0.13978  32.80755  2       47
siesta:     -0.40557  -2.60678  32.80755  2       48
siesta:      0.59030   0.53175  40.09811  1       49
siesta:      2.63900   0.13978  40.09811  2       50
siesta:      0.40557   2.60678  40.09811  2       51
siesta:     -0.59030  -0.53175  37.66793  1       52
siesta:     -2.63900  -0.13978  37.66793  2       53
siesta:     -0.40557  -2.60678  37.66793  2       54
siesta:      0.59030   0.53175  44.95849  1       55
siesta:      2.63900   0.13978  44.95849  2       56
siesta:      0.40557   2.60678  44.95849  2       57
siesta:     -0.59030  -0.53175  42.52830  1       58
siesta:     -2.63900  -0.13978  42.52830  2       59
siesta:     -0.40557  -2.60678  42.52830  2       60
siesta:      0.59030   0.53175  49.81887  1       61
siesta:      2.63900   0.13978  49.81887  2       62
siesta:      0.40557   2.60678  49.81887  2       63
siesta:     -0.59030  -0.53175  47.38868  1       64
siesta:     -2.63900  -0.13978  47.38868  2       65
siesta:     -0.40557  -2.60678  47.38868  2       66
siesta:      0.59030   0.53175  54.67925  1       67
siesta:      2.63900   0.13978  54.67925  2       68
siesta:      0.40557   2.60678  54.67925  2       69
siesta:     -0.59030  -0.53175  52.24906  1       70
siesta:     -2.63900  -0.13978  52.24906  2       71
siesta:     -0.40557  -2.60678  52.24906  2       72
siesta:      0.59030   0.53175  59.53962  1       73
siesta:      2.63900   0.13978  59.53962  2       74
siesta:      0.40557   2.60678  59.53962  2       75
siesta:     -0.59030  -0.53175  57.10944  1       76
siesta:     -2.63900  -0.13978  57.10944  2       77
siesta:     -0.40557  -2.60678  57.10944  2       78
siesta:      0.59030   0.53175  64.40000  1       79
siesta:      2.63900   0.13978  64.40000  2       80
siesta:      0.40557   2.60678  64.40000  2       81
siesta:     -0.59030  -0.53175  61.96981  1       82
siesta:     -2.63900  -0.13978  61.96981  2       83
siesta:     -0.40557  -2.60678  61.96981  2       84
siesta:      0.59030   0.53175  69.26038  1       85
siesta:      2.63900   0.13978  69.26038  2       86
siesta:      0.40557   2.60678  69.26038  2       87
siesta:     -0.59030  -0.53175  66.83019  1       88
siesta:     -2.63900  -0.13978  66.83019  2       89
siesta:     -0.40557  -2.60678  66.83019  2       90
siesta:      0.59030   0.53175  74.12076  1       91
siesta:      2.63900   0.13978  74.12076  2       92
siesta:      0.40557   2.60678  74.12076  2       93
siesta:     -0.59030  -0.53175  71.69057  1       94
siesta:     -2.63900  -0.13978  71.69057  2       95
siesta:     -0.40557  -2.60678  71.69057  2       96
siesta:      0.59030   0.53175  78.98113  1       97
siesta:      2.63900   0.13978  78.98113  2       98
siesta:      0.40557   2.60678  78.98113  2       99
siesta:     -0.59030  -0.53175  76.55095  1      100
siesta:     -2.63900  -0.13978  76.55095  2      101
siesta:     -0.40557  -2.60678  76.55095  2      102
siesta:      0.59030   0.53175  83.84151  1      103
siesta:      2.63900   0.13978  83.84151  2      104
siesta:      0.40557   2.60678  83.84151  2      105
siesta:     -0.59030  -0.53175  81.41132  1      106
siesta:     -2.63900  -0.13978  81.41132  2      107
siesta:     -0.40557  -2.60678  81.41132  2      108
siesta:      0.59030   0.53175  88.70189  1      109
siesta:      2.63900   0.13978  88.70189  2      110
siesta:      0.40557   2.60678  88.70189  2      111
siesta:     -0.59030  -0.53175  86.27170  1      112
siesta:     -2.63900  -0.13978  86.27170  2      113
siesta:     -0.40557  -2.60678  86.27170  2      114
siesta:      0.59030   0.53175  93.56227  1      115
siesta:      2.63900   0.13978  93.56227  2      116
siesta:      0.40557   2.60678  93.56227  2      117
siesta:     -0.59030  -0.53175  91.13208  1      118
siesta:     -2.63900  -0.13978  91.13208  2      119
siesta:     -0.40557  -2.60678  91.13208  2      120
siesta:      0.59030   0.53175  98.42264  1      121
siesta:      2.63900   0.13978  98.42264  2      122
siesta:      0.40557   2.60678  98.42264  2      123
siesta:     -0.59030  -0.53175  95.99246  1      124
siesta:     -2.63900  -0.13978  95.99246  2      125
siesta:     -0.40557  -2.60678  95.99246  2      126
siesta:      0.59030   0.53175 103.28302  1      127
siesta:      2.63900   0.13978 103.28302  2      128
siesta:      0.40557   2.60678 103.28302  2      129
siesta:     -0.59030  -0.53175 100.85283  1      130
siesta:     -2.63900  -0.13978 100.85283  2      131
siesta:     -0.40557  -2.60678 100.85283  2      132
siesta:      0.59030   0.53175 108.14340  1      133
siesta:      2.63900   0.13978 108.14340  2      134
siesta:      0.40557   2.60678 108.14340  2      135
siesta:     -0.59030  -0.53175 105.71321  1      136
siesta:     -2.63900  -0.13978 105.71321  2      137
siesta:     -0.40557  -2.60678 105.71321  2      138
siesta:      0.59030   0.53175 113.00378  1      139
siesta:      2.63900   0.13978 113.00378  2      140
siesta:      0.40557   2.60678 113.00378  2      141
siesta:     -0.59030  -0.53175 110.57359  1      142
siesta:     -2.63900  -0.13978 110.57359  2      143
siesta:     -0.40557  -2.60678 110.57359  2      144
siesta:      0.59030   0.53175 117.86416  1      145
siesta:      2.63900   0.13978 117.86416  2      146
siesta:      0.40557   2.60678 117.86416  2      147
siesta:     -0.59030  -0.53175 115.43397  1      148
siesta:     -2.63900  -0.13978 115.43397  2      149
siesta:     -0.40557  -2.60678 115.43397  2      150
siesta:      0.59030   0.53175 122.72453  1      151
siesta:      2.63900   0.13978 122.72453  2      152
siesta:      0.40557   2.60678 122.72453  2      153
siesta:     -0.59030  -0.53175 120.29434  1      154
siesta:     -2.63900  -0.13978 120.29434  2      155
siesta:     -0.40557  -2.60678 120.29434  2      156
siesta:      0.59030   0.53175 127.58491  1      157
siesta:      2.63900   0.13978 127.58491  2      158
siesta:      0.40557   2.60678 127.58491  2      159
siesta:     -0.59030  -0.53175 125.15472  1      160
siesta:     -2.63900  -0.13978 125.15472  2      161
siesta:     -0.40557  -2.60678 125.15472  2      162
siesta:      0.59030   0.53175 132.44529  1      163
siesta:      2.63900   0.13978 132.44529  2      164
siesta:      0.40557   2.60678 132.44529  2      165
siesta:     -0.59030  -0.53175 130.01510  1      166
siesta:     -2.63900  -0.13978 130.01510  2      167
siesta:     -0.40557  -2.60678 130.01510  2      168
siesta:      0.59030   0.53175 137.30567  1      169
siesta:      2.63900   0.13978 137.30567  2      170
siesta:      0.40557   2.60678 137.30567  2      171
siesta:     -0.59030  -0.53175 134.87548  1      172
siesta:     -2.63900  -0.13978 134.87548  2      173
siesta:     -0.40557  -2.60678 134.87548  2      174
siesta:      0.59030   0.53175 142.16604  1      175
siesta:      2.63900   0.13978 142.16604  2      176
siesta:      0.40557   2.60678 142.16604  2      177
siesta:     -0.59030  -0.53175 139.73585  1      178
siesta:     -2.63900  -0.13978 139.73585  2      179
siesta:     -0.40557  -2.60678 139.73585  2      180
siesta:      0.59030   0.53175 147.02642  1      181
siesta:      2.63900   0.13978 147.02642  2      182
siesta:      0.40557   2.60678 147.02642  2      183
siesta:     -0.59030  -0.53175 144.59623  1      184
siesta:     -2.63900  -0.13978 144.59623  2      185
siesta:     -0.40557  -2.60678 144.59623  2      186
siesta:      0.59030   0.53175 151.88680  1      187
siesta:      2.63900   0.13978 151.88680  2      188
siesta:      0.40557   2.60678 151.88680  2      189
siesta:     -0.59030  -0.53175 149.45661  1      190
siesta:     -2.63900  -0.13978 149.45661  2      191
siesta:     -0.40557  -2.60678 149.45661  2      192
siesta:      0.59030   0.53175 156.74718  1      193
siesta:      2.63900   0.13978 156.74718  2      194
siesta:      0.40557   2.60678 156.74718  2      195
siesta:     -0.59030  -0.53175 154.31699  1      196
siesta:     -2.63900  -0.13978 154.31699  2      197
siesta:     -0.40557  -2.60678 154.31699  2      198
siesta:      0.59030   0.53175 161.60755  1      199
siesta:      2.63900   0.13978 161.60755  2      200
siesta:      0.40557   2.60678 161.60755  2      201
siesta:     -0.59030  -0.53175 159.17736  1      202
siesta:     -2.63900  -0.13978 159.17736  2      203
siesta:     -0.40557  -2.60678 159.17736  2      204
siesta:      0.59030   0.53175 166.46793  1      205
siesta:      2.63900   0.13978 166.46793  2      206
siesta:      0.40557   2.60678 166.46793  2      207
siesta:     -0.59030  -0.53175 164.03774  1      208
siesta:     -2.63900  -0.13978 164.03774  2      209
siesta:     -0.40557  -2.60678 164.03774  2      210
siesta:      0.59030   0.53175 171.32831  1      211
siesta:      2.63900   0.13978 171.32831  2      212
siesta:      0.40557   2.60678 171.32831  2      213
siesta:     -0.59030  -0.53175 168.89812  1      214
siesta:     -2.63900  -0.13978 168.89812  2      215
siesta:     -0.40557  -2.60678 168.89812  2      216
siesta:      0.59030   0.53175 176.18869  1      217
siesta:      2.63900   0.13978 176.18869  2      218
siesta:      0.40557   2.60678 176.18869  2      219
siesta:     -0.59030  -0.53175 173.75850  1      220
siesta:     -2.63900  -0.13978 173.75850  2      221
siesta:     -0.40557  -2.60678 173.75850  2      222
siesta:      0.59030   0.53175 181.04906  1      223
siesta:      2.63900   0.13978 181.04906  2      224
siesta:      0.40557   2.60678 181.04906  2      225
siesta:     -0.59030  -0.53175 178.61887  1      226
siesta:     -2.63900  -0.13978 178.61887  2      227
siesta:     -0.40557  -2.60678 178.61887  2      228
siesta:      0.59030   0.53175 185.90944  1      229
siesta:      2.63900   0.13978 185.90944  2      230
siesta:      0.40557   2.60678 185.90944  2      231
siesta:     -0.59030  -0.53175 183.47925  1      232
siesta:     -2.63900  -0.13978 183.47925  2      233
siesta:     -0.40557  -2.60678 183.47925  2      234
siesta:      0.59030   0.53175 190.76982  1      235
siesta:      2.63900   0.13978 190.76982  2      236
siesta:      0.40557   2.60678 190.76982  2      237
siesta:     -0.59030  -0.53175 188.33963  1      238
siesta:     -2.63900  -0.13978 188.33963  2      239
siesta:     -0.40557  -2.60678 188.33963  2      240
siesta:      0.59030   0.53175 195.63020  1      241
siesta:      2.63900   0.13978 195.63020  2      242
siesta:      0.40557   2.60678 195.63020  2      243
siesta:     -0.59030  -0.53175 193.20001  1      244
siesta:     -2.63900  -0.13978 193.20001  2      245
siesta:     -0.40557  -2.60678 193.20001  2      246
siesta:      0.59030   0.53175 200.49057  1      247
siesta:      2.63900   0.13978 200.49057  2      248
siesta:      0.40557   2.60678 200.49057  2      249
siesta:     -0.59030  -0.53175 198.06038  1      250
siesta:     -2.63900  -0.13978 198.06038  2      251
siesta:     -0.40557  -2.60678 198.06038  2      252
siesta:      0.59030   0.53175 205.35095  1      253
siesta:      2.63900   0.13978 205.35095  2      254
siesta:      0.40557   2.60678 205.35095  2      255
siesta:     -0.59030  -0.53175 202.92076  1      256
siesta:     -2.63900  -0.13978 202.92076  2      257
siesta:     -0.40557  -2.60678 202.92076  2      258
siesta:      0.59030   0.53175 210.21133  1      259
siesta:      2.63900   0.13978 210.21133  2      260
siesta:      0.40557   2.60678 210.21133  2      261
siesta:     -0.59030  -0.53175 207.78114  1      262
siesta:     -2.63900  -0.13978 207.78114  2      263
siesta:     -0.40557  -2.60678 207.78114  2      264
siesta:      0.59030   0.53175 215.07171  1      265
siesta:      2.63900   0.13978 215.07171  2      266
siesta:      0.40557   2.60678 215.07171  2      267
siesta:     -0.59030  -0.53175 212.64152  1      268
siesta:     -2.63900  -0.13978 212.64152  2      269
siesta:     -0.40557  -2.60678 212.64152  2      270
siesta:      0.59030   0.53175 219.93208  1      271
siesta:      2.63900   0.13978 219.93208  2      272
siesta:      0.40557   2.60678 219.93208  2      273
siesta:     -0.59030  -0.53175 217.50189  1      274
siesta:     -2.63900  -0.13978 217.50189  2      275
siesta:     -0.40557  -2.60678 217.50189  2      276
siesta:      0.59030   0.53175 224.79246  1      277
siesta:      2.63900   0.13978 224.79246  2      278
siesta:      0.40557   2.60678 224.79246  2      279
siesta:     -0.59030  -0.53175 222.36227  1      280
siesta:     -2.63900  -0.13978 222.36227  2      281
siesta:     -0.40557  -2.60678 222.36227  2      282
siesta:      0.59030   0.53175 229.65284  1      283
siesta:      2.63900   0.13978 229.65284  2      284
siesta:      0.40557   2.60678 229.65284  2      285
siesta:     -0.59030  -0.53175 227.22265  1      286
siesta:     -2.63900  -0.13978 227.22265  2      287
siesta:     -0.40557  -2.60678 227.22265  2      288
siesta:      0.59030   0.53175 234.51322  1      289
siesta:      2.63900   0.13978 234.51322  2      290
siesta:      0.40557   2.60678 234.51322  2      291
siesta:     -0.59030  -0.53175 232.08303  1      292
siesta:     -2.63900  -0.13978 232.08303  2      293
siesta:     -0.40557  -2.60678 232.08303  2      294
siesta:      0.59030   0.53175 239.37359  1      295
siesta:      2.63900   0.13978 239.37359  2      296
siesta:      0.40557   2.60678 239.37359  2      297
siesta:     -0.59030  -0.53175 236.94340  1      298
siesta:     -2.63900  -0.13978 236.94340  2      299
siesta:     -0.40557  -2.60678 236.94340  2      300
siesta:      0.59030   0.53175 244.23397  1      301
siesta:      2.63900   0.13978 244.23397  2      302
siesta:      0.40557   2.60678 244.23397  2      303
siesta:     -0.59030  -0.53175 241.80378  1      304
siesta:     -2.63900  -0.13978 241.80378  2      305
siesta:     -0.40557  -2.60678 241.80378  2      306
siesta:      0.59030   0.53175 249.09435  1      307
siesta:      2.63900   0.13978 249.09435  2      308
siesta:      0.40557   2.60678 249.09435  2      309
siesta:     -0.59030  -0.53175 246.66416  1      310
siesta:     -2.63900  -0.13978 246.66416  2      311
siesta:     -0.40557  -2.60678 246.66416  2      312
siesta:      0.59030   0.53175 253.95473  1      313
siesta:      2.63900   0.13978 253.95473  2      314
siesta:      0.40557   2.60678 253.95473  2      315
siesta:     -0.59030  -0.53175 251.52454  1      316
siesta:     -2.63900  -0.13978 251.52454  2      317
siesta:     -0.40557  -2.60678 251.52454  2      318
siesta:      0.59030   0.53175 258.81510  1      319
siesta:      2.63900   0.13978 258.81510  2      320
siesta:      0.40557   2.60678 258.81510  2      321
siesta:     -0.59030  -0.53175 256.38491  1      322
siesta:     -2.63900  -0.13978 256.38491  2      323
siesta:     -0.40557  -2.60678 256.38491  2      324
siesta:      0.59030   0.53175 263.67548  1      325
siesta:      2.63900   0.13978 263.67548  2      326
siesta:      0.40557   2.60678 263.67548  2      327
siesta:     -0.59030  -0.53175 261.24529  1      328
siesta:     -2.63900  -0.13978 261.24529  2      329
siesta:     -0.40557  -2.60678 261.24529  2      330
siesta:      0.59030   0.53175 268.53586  1      331
siesta:      2.63900   0.13978 268.53586  2      332
siesta:      0.40557   2.60678 268.53586  2      333
siesta:     -0.59030  -0.53175 266.10567  1      334
siesta:     -2.63900  -0.13978 266.10567  2      335
siesta:     -0.40557  -2.60678 266.10567  2      336
siesta:      0.59030   0.53175 273.39624  1      337
siesta:      2.63900   0.13978 273.39624  2      338
siesta:      0.40557   2.60678 273.39624  2      339
siesta:     -0.59030  -0.53175 270.96605  1      340
siesta:     -2.63900  -0.13978 270.96605  2      341
siesta:     -0.40557  -2.60678 270.96605  2      342
siesta:      0.59030   0.53175 278.25661  1      343
siesta:      2.63900   0.13978 278.25661  2      344
siesta:      0.40557   2.60678 278.25661  2      345
siesta:     -0.59030  -0.53175 275.82642  1      346
siesta:     -2.63900  -0.13978 275.82642  2      347
siesta:     -0.40557  -2.60678 275.82642  2      348
siesta:      0.59030   0.53175 283.11699  1      349
siesta:      2.63900   0.13978 283.11699  2      350
siesta:      0.40557   2.60678 283.11699  2      351
siesta:     -0.59030  -0.53175 280.68680  1      352
siesta:     -2.63900  -0.13978 280.68680  2      353
siesta:     -0.40557  -2.60678 280.68680  2      354
siesta:      0.59030   0.53175 287.97737  1      355
siesta:      2.63900   0.13978 287.97737  2      356
siesta:      0.40557   2.60678 287.97737  2      357
siesta:     -0.59030  -0.53175 285.54718  1      358
siesta:     -2.63900  -0.13978 285.54718  2      359
siesta:     -0.40557  -2.60678 285.54718  2      360
siesta:      0.59030   0.53175 292.83775  1      361
siesta:      2.63900   0.13978 292.83775  2      362
siesta:      0.40557   2.60678 292.83775  2      363
siesta:     -0.59030  -0.53175 290.40756  1      364
siesta:     -2.63900  -0.13978 290.40756  2      365
siesta:     -0.40557  -2.60678 290.40756  2      366
siesta:      0.59030   0.53175 297.69812  1      367
siesta:      2.63900   0.13978 297.69812  2      368
siesta:      0.40557   2.60678 297.69812  2      369
siesta:     -0.59030  -0.53175 295.26793  1      370
siesta:     -2.63900  -0.13978 295.26793  2      371
siesta:     -0.40557  -2.60678 295.26793  2      372
siesta:      0.59030   0.53175 302.55850  1      373
siesta:      2.63900   0.13978 302.55850  2      374
siesta:      0.40557   2.60678 302.55850  2      375
siesta:     -0.59030  -0.53175 300.12831  1      376
siesta:     -2.63900  -0.13978 300.12831  2      377
siesta:     -0.40557  -2.60678 300.12831  2      378
siesta:      0.59030   0.53175 307.41888  1      379
siesta:      2.63900   0.13978 307.41888  2      380
siesta:      0.40557   2.60678 307.41888  2      381
siesta:     -0.59030  -0.53175 304.98869  1      382
siesta:     -2.63900  -0.13978 304.98869  2      383
siesta:     -0.40557  -2.60678 304.98869  2      384

siesta: System type = chain     

initatomlists: Number of atoms, orbitals, and projectors:    384  2944  4352

siesta: ******************** Simulation parameters ****************************
siesta:
siesta: The following are some of the parameters of the simulation.
siesta: A complete list of the parameters used, including default values,
siesta: can be found in file out.fdf
siesta:
redata: Non-Collinear-spin run           =     F
redata: SpinPolarized (Up/Down) run      =     F
redata: Number of spin components        =     1
redata: Long output                      =     F
redata: Number of Atomic Species         =        2
redata: Charge density info will appear in .RHO file
redata: Write Mulliken Pop.              =     NO
redata: Mesh Cutoff                      =   100.0000  Ry
redata: Net charge of the system         =     0.0000 |e|
redata: Min. number of SCF Iter          =        0
redata: Max. number of SCF Iter          =       50
redata: Mix DM or H after convergence    =     F
redata: Recompute H after scf cycle      =     F
redata: Performing Pulay mixing using    =     3 iterations
redata: Mix DM in first SCF step ?       =     F
redata: Write Pulay info on disk?        =     F
redata: Discard 1st Pulay DM after  kick =     F
redata: New DM Mixing Weight             =     0.3000
redata: New DM Occupancy tolerance       = 0.000000000001
redata: No kicks to SCF
redata: DM Mixing Weight for Kicks       =     0.5000
redata: DM Tolerance for SCF             =     0.000100
redata: Require (free) Energy convergence in SCF =     F
redata: DM (free)Energy tolerance for SCF =     0.000010 eV
redata: Require Harris convergence for SCF =     F
redata: DM Harris energy tolerance for SCF =     0.000010 eV
redata: Using Saved Data (generic)   =     F
redata: Use continuation files for DM    =     F
redata: Neglect nonoverlap interactions  =     F
redata: Method of Calculation            =     QETSc
redata: Fix the spin of the system       =     F
redata: Dynamics option                  =     Single-point calculation
redata: ***********************************************************************
Total number of electrons:   768.000000
Total ionic charge:   768.000000

* ProcessorY, Blocksize:    4 184


* Orbital distribution balance (max,min):   184   184

 Kpoints in:  1 . Kpoints trimmed:  1

siesta: k-grid: Number of k-points =     1
siesta: k-grid: Cutoff (effective) =    10.000 Ang
siesta: k-grid: Supercell and displacements
siesta: k-grid:    1   0   0      0.000
siesta: k-grid:    0   1   0      0.000
siesta: k-grid:    0   0   1      0.000

                     ====================================
                        Single-point calculation
                     ====================================

outcell: Unit cell vectors (Ang):
       20.000000    0.000000    0.000000
        0.000000   20.000000    0.000000
        0.000000    0.000000  164.608000

outcell: Cell vector modules (Ang)   :   20.000000   20.000000  164.608000
outcell: Cell angles (23,13,12) (deg):     90.0000     90.0000     90.0000
outcell: Cell volume (Ang**3)        :  65843.2000
New_DM. Step:     1
Initializing Density Matrix...
New grid distribution:   1
           1       1:   64    1:   16    1:  125
           2       1:   64    1:   16  126:  250
           3       1:   64    1:   16  251:  375
           4       1:   64    1:   16  376:  500
           5       1:   64   17:   32    1:  125
           6       1:   64   17:   32  126:  250
           7       1:   64   17:   32  251:  375
           8       1:   64   17:   32  376:  500
           9       1:   64   33:   48    1:  125
          10       1:   64   33:   48  126:  250
          11       1:   64   33:   48  251:  375
          12       1:   64   33:   48  376:  500
          13       1:   64   49:   64    1:  125
          14       1:   64   49:   64  126:  250
          15       1:   64   49:   64  251:  375
          16       1:   64   49:   64  376:  500

InitMesh: MESH =   128 x   128 x  1000 =    16384000
InitMesh: (bp) =    64 x    64 x   500 =     2048000
InitMesh: Mesh cutoff (required, used) =   100.000   102.000 Ry
ExtMesh (bp) on 0 =   100 x    52 x   157 =      816400
New grid distribution:   2
           1       1:   64    8:   64    1:   63
           2       1:   64    1:    7  376:  438
           3       1:   64    1:    7   64:  125
           4       1:   64    8:   64  439:  500
           5       1:   64    1:    7  126:  188
           6       1:   64    1:    7  439:  500
           7       1:   64    8:   64  314:  375
           8       1:   64    8:   64  376:  438
           9       1:   64    8:   64   64:  125
          10       1:   64    8:   64  126:  188
          11       1:   64    1:    7    1:   63
          12       1:   64    1:    7  189:  250
          13       1:   64    1:    7  251:  313
          14       1:   64    8:   64  189:  250
          15       1:   64    8:   64  251:  313
          16       1:   64    1:    7  314:  375
New grid distribution:   3
           1       1:   64    1:   12  376:  437
           2       1:   64   13:   64  126:  187
           3       1:   64    1:   12  313:  375
           4       1:   64   13:   64  438:  500
           5       1:   64    1:   12  438:  500
           6       1:   64   13:   64  188:  250
           7       1:   64   13:   64  251:  312
           8       1:   64    1:   12  126:  187
           9       1:   64   13:   64   63:  125
          10       1:   64    1:   12   63:  125
          11       1:   64    1:   12    1:   62
          12       1:   64   13:   64  376:  437
          13       1:   64   13:   64    1:   62
          14       1:   64    1:   12  188:  250
          15       1:   64   13:   64  313:  375
          16       1:   64    1:   12  251:  312
Setting up quadratic distribution...
ExtMesh (bp) on 0 =   100 x    93 x    95 =      883500
PhiOnMesh: Number of (b)points on node 0 =               229824
PhiOnMesh: nlist on node 0 =               419980
QETSC: Last update           = Dec 15, 2016
QETSC: Number of ranks       =          16
QETSC: Number of slices      =          16
QETSC: Number of ranks/slice =           1
QETSC: Number of evals/slice =  24.00
QETSC: Number of req. evals  =         384
QETSC: Number of rows (all)  =        2944
QETSC: Number of rows (max)  =         184
QETSC: Number of rows (min)  =         184
QETSC: Density option        =           0
QETSC: Bin type given        =           7
QETSC: Inertia type          =           1
QETSC: Infinity type         =           2
QETSC: Write option          =           1
QETSC: Bin buffer given      =   0.05
QETSC: Diff thresh           =   0.10
QETSC: Number of nonzeros    =      609408
QETSC: Nonzero % (all)       =   7.03
QETSC: Nonzero % (max)       =   7.03
QETSC: Nonzero % (min)       =   7.03
 QETSC: Shifts, inertias         =
      -INF     0
    -2.300     0
    -2.147     0
    -1.993     0
    -1.840     0
    -1.687     0
    -1.533    45
    -1.380    67
    -1.227   120
    -1.073   128
    -0.920   215
    -0.767   311
    -0.613   384
    -0.460   384
    -0.307   384
    -0.153   384
     0.000   384
 QETSc: Custers,iter,crange,npcmax,trial 1 0.715555555555555528E-01 50 2
-1.6185185185185185E+00
-1.5469629629629629E+00
-1.4775757575757575E+00
-1.4009090909090909E+00
-1.3250314465408803E+00
-1.2527044025157232E+00
-1.1883333333333332E+00
-1.1116666666666666E+00
-1.0222222222222221E+00
-9.4996168582375473E-01
-8.7687499999999996E-01
-8.0499999999999994E-01
-7.3305936073059352E-01
-6.5954337899543369E-01
-6.1753424657534239E-01
 QETSC: Bins             =
                   -INF
-1.6866666666666665E+00
-1.6042074074074073E+00
-1.5330855218855217E+00
-1.4622424242424241E+00
-1.3857335620354487E+00
-1.3105660377358490E+00
-1.2398301886792453E+00
-1.1729999999999998E+00
-1.0937777777777777E+00
-1.0077701149425287E+00
-9.3534434865900373E-01
-8.6249999999999993E-01
-7.9061187214611861E-01
-7.1835616438356154E-01
-6.5114155251141548E-01
-6.1333333333333329E-01
QETSC: Started iter            1
QETSC: Bin type used         =           7
QETSC: Buffer used           =   0.0000000000000000E+00
QETSC: EPS interval          =      -INF,    -0.613
QETSC: Inertia type          =           1
SLEPc: EPSSolve time = 8 4.167e-06
SLEPc: EPSSolve time = 14 2.639e-06
SLEPc: EPSSolve time = 15 1.946e-06
SLEPc: EPSSolve time = 0 2.075e-06
SLEPc: EPSSolve time = 3 2.601e+00
SLEPc: EPSSolve time = 4 2.625e+00
SLEPc: EPSSolve time = 2 2.664e+00
SLEPc: EPSSolve time = 6 3.822e+00
SLEPc: EPSSolve time = 1 4.010e+00
SLEPc: EPSSolve time = 7 5.297e+00
SLEPc: EPSSolve time = 5 5.348e+00
SLEPc: EPSSolve time = 10 6.735e+00
SLEPc: EPSSolve time = 9 7.420e+00
SLEPc: EPSSolve time = 12 7.587e+00
SLEPc: EPSSolve time = 11 8.252e+00
SLEPc: EPSSolve time = 13 1.163e+01
 QETSC: Eigenvalues         =
-1.6792898009683819E+00
-1.6789996922250208E+00
-1.6789996922250126E+00
-1.6781294751270732E+00
-1.6781294751270703E+00
-1.6766794797057338E+00
-1.6766794797057263E+00
-1.6746505299675258E+00
-1.6746499993000332E+00
-1.6720426298959790E+00
-1.6720426298959765E+00
-1.6688576336679191E+00
-1.6688576336679148E+00
-1.6650966130398768E+00
-1.6650966130398737E+00
-1.6607614371024015E+00
-1.6607609794869584E+00
-1.6558533903325912E+00
-1.6558533903325894E+00
-1.6503754914024287E+00
-1.6503754914024240E+00
-1.6443302401572746E+00
-1.6443302401572708E+00
-1.6377295940554888E+00
-1.6377119801211153E+00
-1.6305507782508706E+00
-1.6305507782508637E+00
-1.6228243859141620E+00
-1.6228243859141609E+00
-1.6145463468382251E+00
-1.6145463468382224E+00
-1.6057238485298018E+00
-1.6057202689753476E+00
-1.5963576464339819E+00
-1.5963576464339779E+00
-1.5864600543452088E+00
-1.5864600543452072E+00
-1.5760371562120987E+00
-1.5760371562120914E+00
-1.5650980815262332E+00
-1.5650976947079631E+00
-1.5536524078177125E+00
-1.5536524078177092E+00
-1.5417122890804105E+00
-1.5417122890804078E+00
-1.5292907595560861E+00
-1.5292907595560772E+00
-1.5164053129189898E+00
-1.5164006733068536E+00
-1.5030664732753629E+00
-1.5030664732753611E+00
-1.4893014430983398E+00
-1.4893014430983365E+00
-1.4751314672196403E+00
-1.4751314672196343E+00
-1.4605859526477936E+00
-1.4605823237560991E+00
-1.4456919638164214E+00
-1.4456919638163854E+00
-1.4304934842994410E+00
-1.4304934842994053E+00
-1.4150346797641999E+00
-1.4150346797641862E+00
-1.3993708446340829E+00
-1.3993706328008015E+00
-1.3835682609316844E+00
-1.3835682609316777E+00
-1.3677079616496519E+00
-1.3677079616496466E+00
-1.3518879007374878E+00
-1.3518879007374847E+00
-1.3362274355465438E+00
-1.3362268698820974E+00
-1.3208696050386464E+00
-1.3208696050386404E+00
-1.3059871485162697E+00
-1.3059871485162520E+00
-1.2917808422030965E+00
-1.2917808422030890E+00
-1.2784800720487746E+00
-1.2784754197942694E+00
-1.2663203998453303E+00
-1.2663203998453196E+00
-1.2555463253085439E+00
-1.2555463253085402E+00
-1.2470904146233461E+00
-1.2469283454191271E+00
-1.2469283454191260E+00
-1.2464447289491343E+00
-1.2464447289491314E+00
-1.2463579608698585E+00
-1.2463579608698527E+00
-1.2456472154882037E+00
-1.2456472154881999E+00
-1.2445511329937788E+00
-1.2445490155310293E+00
-1.2431719955249050E+00
-1.2431719955249012E+00
-1.2415397679311744E+00
-1.2415397679311710E+00
-1.2396878027010498E+00
-1.2396878027010449E+00
-1.2388873551662658E+00
-1.2388868415231316E+00
-1.2376603580876564E+00
-1.2376595314610381E+00
-1.2355113766498853E+00
-1.2355113766498775E+00
-1.2333110550986610E+00
-1.2333110550986530E+00
-1.2331706658876191E+00
-1.2331706658876160E+00
-1.2311447328227438E+00
-1.2311447328227370E+00
-1.2291398955564752E+00
-1.2291398955564716E+00
-1.2291355728970446E+00
-1.2291010883132156E+00
-1.2273622232059109E+00
-1.2273622232059047E+00
-1.2266368392047859E+00
-1.2266368392047802E+00
-1.2260345857478825E+00
-1.2260345857478745E+00
-1.2254460204095725E+00
-1.2254438109528012E+00
-1.2253232816404216E+00
-1.2253232816404156E+00
-1.0713228956673864E+00
-1.0710499858299589E+00
-1.0710499858299545E+00
-1.0702317714422158E+00
-1.0702317714422103E+00
-1.0688698019162557E+00
-1.0688698019162555E+00
-1.0669667197650734E+00
-1.0669666263856741E+00
-1.0645260473966420E+00
-1.0645260473966351E+00
-1.0615526824108190E+00
-1.0615526824108161E+00
-1.0580524673304896E+00
-1.0580524673304867E+00
-1.0540327137390693E+00
-1.0540322222397616E+00
-1.0495009803630553E+00
-1.0495009803630517E+00
-1.0444675933961491E+00
-1.0444675933961416E+00
-1.0389432685610531E+00
-1.0389432685610449E+00
-1.0329674555827388E+00
-1.0329131096867525E+00
-1.0264726340792392E+00
-1.0264726340792341E+00
-1.0195559391056226E+00
-1.0195559391056206E+00
-1.0122073346969034E+00
-1.0122073346968976E+00
-1.0044460043779391E+00
-1.0044458070891944E+00
-9.9629266224550528E-01
-9.9629266224550095E-01
-9.8777067184118350E-01
-9.8777067184117961E-01
-9.8740052528637690E-01
-9.8740052528636479E-01
-9.8643241425744510E-01
-9.8643241425743999E-01
-9.8637206098429653E-01
-9.8636866725049466E-01
-9.8357562706214618E-01
-9.8357562706212531E-01
-9.8327397795441218E-01
-9.8327397795440163E-01
-9.7926084190886142E-01
-9.7926084190884377E-01
-9.7890529484444311E-01
-9.7890529484443667E-01
-9.7781029778969286E-01
-9.7780937258140255E-01
-9.7366042164209465E-01
-9.7366042164206779E-01
-9.7002753701652045E-01
-9.7002753701651867E-01
-9.6972320410335056E-01
-9.6972268769344871E-01
-9.6698897826488528E-01
-9.6698654261686257E-01
-9.6025527154819001E-01
-9.6025527154818358E-01
-9.6003046783953860E-01
-9.6003046783952917E-01
-9.5943173734620024E-01
-9.5943173734619303E-01
-9.5115754962968646E-01
-9.5115754962967192E-01
-9.5053350911698642E-01
-9.5053350911698153E-01
-9.4801813545948366E-01
-9.4801813545947278E-01
-9.4230962176934230E-01
-9.4230962176932453E-01
-9.4059267006837410E-01
-9.4059267006836633E-01
-9.3426065352426280E-01
-9.3426041173873242E-01
-9.3301559336651885E-01
-9.3301458918302371E-01
-9.3047065682152241E-01
-9.3046975926727238E-01
-9.2338717302713447E-01
-9.2338717302712847E-01
-9.2020615535249606E-01
-9.2020615535249184E-01
-9.1906379254830672E-01
-9.1906379254829818E-01
-9.1352797951741738E-01
-9.1352797951741394E-01
-9.0984309357168591E-01
-9.0984309357167881E-01
-9.0353085306280800E-01
-9.0353085306280190E-01
-9.0274421172675989E-01
-9.0274421172675057E-01
-8.9942606175318995E-01
-8.9942606175318107E-01
-8.9348463382115273E-01
-8.9347944532050194E-01
-8.8900589749404757E-01
-8.8899887660550714E-01
-8.8561291607275994E-01
-8.8561291607275405E-01
-8.8346171752137925E-01
-8.8346171752137093E-01
-8.7862143536065684E-01
-8.7862143536065018E-01
-8.7354543096126092E-01
-8.7354543096125192E-01
-8.6833425672704079E-01
-8.6833425672703501E-01
-8.6804690445358124E-01
-8.6789137554836737E-01
-8.6380305140262170E-01
-8.6380305140261471E-01
-8.5819311968826639E-01
-8.5819311968825929E-01
-8.5430680711530838E-01
-8.5429329425999101E-01
-8.5010324537694493E-01
-8.5010324537693094E-01
-8.4825098361635831E-01
-8.4825087536717114E-01
-8.4509662912185057E-01
-8.4509662912184380E-01
-8.3856051981092750E-01
-8.3856051981092072E-01
-8.3624734800095224E-01
-8.3624734800094613E-01
-8.3229911840557391E-01
-8.3229911840556026E-01
-8.2917381577907368E-01
-8.2917381577906502E-01
-8.2780051029691437E-01
-8.2780051029691337E-01
-8.2014091292779978E-01
-8.2014091292779290E-01
-8.1979787362882517E-01
-8.1979723832528795E-01
-8.1483981700253005E-01
-8.1483981700252006E-01
-8.1227241803305150E-01
-8.1227241803304118E-01
-8.1151518046842830E-01
-8.1150285950137979E-01
-8.0525104093305100E-01
-8.0525104093303701E-01
-8.0332142504601256E-01
-8.0332142504600901E-01
-7.9875106300205523E-01
-7.9875106300204846E-01
-7.9801350807104976E-01
-7.9801321300489181E-01
-7.9561640395127242E-01
-7.9561640395126620E-01
-7.9278399810980527E-01
-7.9277948573018531E-01
-7.8842620048548473E-01
-7.8842620048547751E-01
-7.8734415773963928E-01
-7.8734415773963518E-01
-7.8243170068143553E-01
-7.8243170068142942E-01
-7.8211568233366102E-01
-7.8211568233365703E-01
-7.8177966912193664E-01
-7.8177261011080612E-01
-7.7803085705938568E-01
-7.7803085705937503E-01
-7.7568391594860986E-01
-7.7568391594860520E-01
-7.7416375497129908E-01
-7.7407952175654682E-01
-7.7068003486344117E-01
-7.7068003486343017E-01
-7.7015911279337534E-01
-7.7015911279337290E-01
-7.6767858036620895E-01
-7.6767858036620173E-01
-7.6745110280266149E-01
-7.6745110280265338E-01
-7.6520298288903854E-01
-7.6520298288903643E-01
-7.6508623200016601E-01
-7.6508623200016002E-01
-7.6287234945005644E-01
-7.6287197653910666E-01
-7.6100516989475286E-01
-7.6100516989474520E-01
-7.6080881789355137E-01
-7.6080831886212075E-01
-7.5945541382471660E-01
-7.5945541382470960E-01
-7.5819525951124356E-01
-7.5819525951123801E-01
-7.5720037474314350E-01
-7.5719955580742537E-01
-7.5696100996229287E-01
-7.5696100996228821E-01
-7.5644861223804616E-01
-7.5644861223804361E-01
-7.5592428903281395E-01
-7.5592428903281161E-01
-7.5561469461538211E-01
-7.5561469461538122E-01
-7.5551233467999068E-01
-7.5432972187096969E-01
-7.5432972187096192E-01
-7.5363839845206004E-01
-7.5363839845205527E-01
-7.5081232335702497E-01
-7.5081232335702075E-01
-7.4845001194273186E-01
-7.4844835303854829E-01
-7.4651122294940409E-01
-7.4651122294940253E-01
-7.4495779040357524E-01
-7.4495779040357224E-01
-7.4374691226460732E-01
-7.4374691226460443E-01
-7.4305858074299691E-01
-7.4305801850391962E-01
-7.4289389472807843E-01
-7.4276695911793589E-01
-7.4216931060169766E-01
-7.4216931060169611E-01
-7.4172819349613051E-01
-7.4172524935732986E-01
-7.4172524935732786E-01
-7.4171036453526129E-01
-7.4171036453525951E-01
-7.4165906361811773E-01
-7.4165906361811529E-01
-7.4158086979937332E-01
-7.4158086979937143E-01
-7.4148721195145995E-01
-7.4148615763348691E-01
-7.4145346341215856E-01
-7.4145346341215745E-01
-7.4139173159232685E-01
-7.4139173159232508E-01
-7.4131738596705632E-01
-7.4131661462699128E-01
-7.4131545045257408E-01
-7.4131545045257186E-01
-7.4128138157037804E-01
-7.4128138157037571E-01
-7.3392806673236100E-01
-7.3392806673235489E-01
-7.2719724255039964E-01
-7.2719724255039686E-01
-7.2307034828067829E-01
-7.2307034828067618E-01
-7.2167947510273489E-01
QETSC: Iter time (min)       =     1  15.88
QETSC: Iter time (max)       =     1  15.88
QETSC: Iter time (avg)       =     1  15.88
QETSC: Num. of conv. evals   =     1         384
QETSC: Eigenvalue (1)        =     1  -1.6792898009683819E+00
QETSC: Eigenvalue (nocc)     =     1  -7.2167947510273489E-01
QETSC: Max differrence       =     1   1.6792898009683819E+00
QETSC: Safe iteration        =     1      F
QETSC: Finished iter         =           1
 *****************************************************************
QETSC: SCF iter time=  16.010

siesta: Program's energy decomposition (eV):
siesta: Ebs     =    -10972.813260
siesta: Eions   =     37515.017267
siesta: Ena     =      8051.360606
siesta: Ekin    =     15139.467002
siesta: Enl     =     -1077.770530
siesta: DEna    =         0.000018
siesta: DUscf   =         0.000000
siesta: DUext   =         0.000000
siesta: Exc     =     -8032.963215
siesta: eta*DQ  =         0.000000
siesta: Emadel  =         0.000000
siesta: Emeta   =         0.000000
siesta: Emolmec =         0.000000
siesta: Ekinion =         0.000000
siesta: Eharris =    -23995.195586
siesta: Etot    =    -23434.923385
siesta: FreeEng =    -23434.923385
timer: Routine,Calls,Time,% =    IterSCF     1      24.260  49.03
 QETSC: Bins             =
                   -INF
-2.2999999999999998E+00
-2.1466666666666665E+00
-1.9933333333333332E+00
-1.8399999999999999E+00
-1.6866666666666665E+00
-1.5333333333333332E+00
-1.3799999999999999E+00
-1.2266666666666666E+00
-1.0733333333333333E+00
-9.1999999999999993E-01
-7.6666666666666661E-01
-6.1333333333333329E-01
-4.5999999999999996E-01
-3.0666666666666664E-01
-1.5333333333333332E-01
 0.0000000000000000E+00
QETSC: Started iter            2
QETSC: Bin type used         =           0
QETSC: Buffer used           =   1.6792898009683819E+00
QETSC: EPS interval          =      -INF,     0.000
QETSC: Inertia type          =           1
SLEPc: EPSSolve time = 2 2.638e-06
SLEPc: EPSSolve time = 15 2.068e-06
SLEPc: EPSSolve time = 1 1.805e-06
SLEPc: EPSSolve time = 3 2.434e-06
SLEPc: EPSSolve time = 4 2.423e-06
SLEPc: EPSSolve time = 5 1.849e-06
SLEPc: EPSSolve time = 0 2.426e-06
SLEPc: EPSSolve time = 6 1.903e-06
SLEPc: EPSSolve time = 14 2.621e+00
SLEPc: EPSSolve time = 7 2.992e+00
SLEPc: EPSSolve time = 8 4.943e+00
SLEPc: EPSSolve time = 11 7.591e+00
SLEPc: EPSSolve time = 10 9.544e+00
SLEPc: EPSSolve time = 9 1.171e+01
SLEPc: EPSSolve time = 12 1.245e+01
SLEPc: EPSSolve time = 13 2.046e+01
 QETSC: Eigenvalues         =
-1.2740833956464990E+00
-1.2737830711297173E+00
-1.2737830711156044E+00
-1.2728822067912817E+00
-1.2728822067882832E+00
-1.2713811338667469E+00
-1.2713811338658263E+00
-1.2692810696393961E+00
-1.2692797616725200E+00
-1.2665808647169239E+00
-1.2665808647166443E+00
-1.2632835650017820E+00
-1.2632835650015088E+00
-1.2593898990848424E+00
-1.2593898990794332E+00
-1.2549019477428447E+00
-1.2549012135206983E+00
-1.2498206905187874E+00
-1.2498206905183860E+00
-1.2441497172617808E+00
-1.2441497172616987E+00
-1.2378916032292619E+00
-1.2378916032292031E+00
-1.2310614118713066E+00
-1.2310381336282130E+00
-1.2236282393364148E+00
-1.2236282393363795E+00
-1.2156316373791893E+00
-1.2156316373771894E+00
-1.2070652632725969E+00
-1.2070652632721175E+00
-1.1979374945853880E+00
-1.1979329270040078E+00
-1.1882484503966040E+00
-1.1882484503964508E+00
-1.1780129482223709E+00
-1.1780129482222168E+00
-1.1672378077171512E+00
-1.1672378077171452E+00
-1.1559339920308136E+00
-1.1559328957304054E+00
-1.1441117941558394E+00
-1.1441117941557974E+00
-1.1317865792138733E+00
-1.1317865792137478E+00
-1.1189736269936379E+00
-1.1189736269936188E+00
-1.1057002572266785E+00
-1.1056822825234220E+00
-1.0919608676635981E+00
-1.0919608676635830E+00
-1.0778074364788015E+00
-1.0778074364787469E+00
-1.0632604472729397E+00
-1.0632604472729201E+00
-1.0483567735696808E+00
-1.0483529625312085E+00
-1.0331324629049266E+00
-1.0331324629048313E+00
-1.0176434516652650E+00
-1.0176434516652313E+00
-1.0019486123950596E+00
-1.0019486123950312E+00
-9.8612194888870319E-01
-9.8612189879498080E-01
-9.7025382854753683E-01
-9.7025382854749265E-01
-9.5445514177880919E-01
-9.5445514177877877E-01
-9.3886147790827879E-01
-9.3886147790821362E-01
-9.2363798894951632E-01
-9.2363749804958672E-01
-9.0898165128483899E-01
-9.0898165128478403E-01
-8.9512427244843229E-01
-8.9512427244834081E-01
-8.8232451413139545E-01
-8.8232451413132629E-01
-8.7622787018939530E-01
-8.7602542012727247E-01
-8.7602542011355733E-01
-8.7542062553694167E-01
-8.7542062553410871E-01
-8.7441973695305364E-01
-8.7441973695218245E-01
-8.7303561080970660E-01
-8.7303186840610603E-01
-8.7127852803673744E-01
-8.7127852803646955E-01
-8.7085505523704498E-01
-8.7085189890870285E-01
-8.6917550079231376E-01
-8.6917550079205819E-01
-8.6675237654531512E-01
-8.6675237654002890E-01
-8.6404444838377847E-01
-8.6404417395636191E-01
-8.6109537111149537E-01
-8.6109537111105072E-01
-8.6096713330586727E-01
-8.6096713330582852E-01
-8.5796045162739953E-01
-8.5796045162730794E-01
-8.5470775568515334E-01
-8.5470775568511392E-01
-8.5286720385983450E-01
-8.5286720385981984E-01
-8.5142565582707996E-01
-8.5141808914953565E-01
-8.4820755176963059E-01
-8.4820755176960017E-01
-8.4666296196449287E-01
-8.4666296196443858E-01
-8.4519400755373986E-01
-8.4519400755143181E-01
-8.4253940355306733E-01
-8.4253940355252765E-01
-8.4234691724342836E-01
-8.4234679100665266E-01
-8.4043500470663468E-01
-8.4043410849135558E-01
-8.3979645718118057E-01
-8.3979645718113127E-01
-8.3910402633034920E-01
-8.3910402633009995E-01
-8.3880161050147994E-01
-8.3880161050139312E-01
-7.2730025045081492E-01
-7.2700939851200352E-01
-7.2700939849837320E-01
-7.2613737629347141E-01
-7.2613737629064956E-01
-7.2468579006329492E-01
-7.2468579006244627E-01
-7.2265815016336066E-01
-7.2265651883817872E-01
-7.2005582056444517E-01
-7.2005582056418438E-01
-7.1688621326890467E-01
-7.1688621326866298E-01
-7.1315468102827662E-01
-7.1315468102339064E-01
-7.0886878641715134E-01
-7.0886853017446982E-01
-7.0403692007428598E-01
-7.0403692007393426E-01
-6.9866967236521960E-01
-6.9866967236514166E-01
-6.9277867966750195E-01
-6.9277867966738194E-01
-6.8642432365751815E-01
-6.8632966262420103E-01
-6.7947998860580161E-01
-6.7947998860575465E-01
-6.7210494433621659E-01
-6.7210494433431478E-01
-6.6427063159255850E-01
-6.6427063159210464E-01
-6.5599876228760579E-01
-6.5599801871341745E-01
-6.4731192024338857E-01
-6.4731192024322437E-01
-6.3823749097921478E-01
-6.3823749097908344E-01
-6.2880413924893686E-01
-6.2880413924892553E-01
-6.1904396525290128E-01
-6.1904377054886639E-01
-6.0899186479124245E-01
-6.0899186479121026E-01
-5.9868686295639906E-01
-5.9868686295632056E-01
-5.8817604531359524E-01
-5.8817604531176371E-01
-5.8647024952209503E-01
-5.8646334975623460E-01
-5.8562073712434126E-01
-5.8562073712410978E-01
-5.8504754097685452E-01
-5.8504754097672718E-01
-5.8278866298861942E-01
-5.8278866298858278E-01
-5.8118546039746111E-01
-5.8118546039741636E-01
-5.7825782589385522E-01
-5.7825782589383190E-01
-5.7748854653264348E-01
-5.7747619454438803E-01
-5.7475110863085288E-01
-5.7475110863081480E-01
-5.7231010130542692E-01
-5.7230898783451978E-01
-5.6668373176894038E-01
-5.6668373176840936E-01
-5.6576742551426262E-01
-5.6576652633775437E-01
-5.6520300571272042E-01
-5.6520300571266169E-01
-5.5716945569807663E-01
-5.5716945569805421E-01
-5.5582007519894083E-01
-5.5582007519849197E-01
-5.5437333257867816E-01
-5.5437333257848320E-01
-5.4841251810735037E-01
-5.4841251810707115E-01
-5.4494868571823396E-01
-5.4494868571810973E-01
-5.4080667164342189E-01
-5.4080667164338747E-01
-5.3911197020259827E-01
-5.3911092027945640E-01
-5.3413308999764575E-01
-5.3412603406132142E-01
-5.2942526542175672E-01
-5.2942526542171631E-01
-5.2536130298451034E-01
-5.2536130298437866E-01
-5.2342567658016459E-01
-5.2342567658005257E-01
-5.1949674663682877E-01
-5.1949674663681533E-01
-5.1290252262416802E-01
-5.1290252262411251E-01
-5.0945568158249210E-01
-5.0945568158244503E-01
-5.0835365362231211E-01
-5.0835312839882996E-01
-5.0262740318542432E-01
-5.0262740318536514E-01
-4.9942402639680644E-01
-4.9941862679825488E-01
-4.9266855673840004E-01
-4.9266841447025145E-01
-4.9009633340129960E-01
-4.9009633340101177E-01
-4.8950398865156530E-01
-4.8950398865153555E-01
-4.8309360964759579E-01
-4.8309360964753839E-01
-4.7980584570950657E-01
-4.7980584570945950E-01
-4.7396886157349238E-01
-4.7396886157344481E-01
-4.7088867386284716E-01
-4.7088867386155447E-01
-4.7042079683333260E-01
-4.7042079683330607E-01
-4.6535694402369737E-01
-4.6535694402357503E-01
-4.6143615156781431E-01
-4.6143302177236822E-01
-4.5732166762058807E-01
-4.5730912097910809E-01
-4.5292312845128091E-01
-4.5292312845127469E-01
-4.5101243500389188E-01
-4.5101243500384258E-01
-4.4989476033590997E-01
-4.4989476033584036E-01
-4.4495178264172103E-01
-4.4495178264164548E-01
-4.4313683317310060E-01
-4.4313683317302016E-01
-4.3757398260658076E-01
-4.3757398260655955E-01
-4.3707302221475136E-01
-4.3707302221467420E-01
-4.3172614017282862E-01
-4.3172017373803218E-01
-4.3084098782383684E-01
-4.3083068229491006E-01
-4.3082953377819838E-01
-4.3063038578995072E-01
-4.2709495210738641E-01
-4.2709495210737675E-01
-4.2510485315815200E-01
-4.2500575383423689E-01
-4.2500575382088679E-01
-4.2474790806857454E-01
-4.2474790806854923E-01
-4.2471430129131071E-01
-4.2471430128862814E-01
-4.2423234234138091E-01
-4.2423234234055635E-01
-4.2357666866766153E-01
-4.2357384363376654E-01
-4.2317988498531334E-01
-4.2317988498526932E-01
-4.2275937082308407E-01
-4.2275937082287329E-01
-4.2180642541810531E-01
-4.2180642541788593E-01
-4.2074317801677208E-01
-4.2074317801213468E-01
-4.1996529252809783E-01
-4.1996529252804743E-01
-4.1960204797693740E-01
-4.1960088394281320E-01
-4.1934466007887944E-01
-4.1934466007877469E-01
-4.1841821435529619E-01
-4.1841821435495030E-01
-4.1741781905740333E-01
-4.1741780756645158E-01
-4.1723548924242893E-01
-4.1723548924230336E-01
-4.1610095489647664E-01
-4.1610095489533533E-01
-4.1549663499550621E-01
-4.1549663499544176E-01
-4.1514130225622825E-01
-4.1497847747924643E-01
-4.1469462090368875E-01
-4.1469462090354076E-01
-4.1417339134589287E-01
-4.1417339134480502E-01
-4.1414691068035314E-01
-4.1414691068025883E-01
-4.1350681069196171E-01
-4.1350681069013667E-01
-4.1323603100514272E-01
-4.1323603100478667E-01
-4.1311944594519240E-01
-4.1311944594489552E-01
-4.1310083801837832E-01
-4.1309742502791547E-01
-4.1038746897159645E-01
-4.1038367159024969E-01
-4.1032088982590886E-01
-4.1032088982580539E-01
-4.0694200467209179E-01
-4.0694200467169395E-01
-4.0405012674772034E-01
-4.0405012674588459E-01
-4.0168539104894885E-01
-4.0168539104845502E-01
-3.9985054268815723E-01
-3.9974111608332347E-01
-3.9832639567539030E-01
-3.9832639567496125E-01
-3.9722004802057420E-01
-3.9722004802047706E-01
-3.9641713737902573E-01
-3.9641713737866546E-01
-3.9586212873136561E-01
-3.9586198184802235E-01
-3.9550258042428860E-01
-3.9550258041945041E-01
-3.9529109132088430E-01
-3.9529109132058932E-01
-3.9519658426458681E-01
-3.9518939236268280E-01
-3.9518939234899086E-01
-3.9518535695934826E-01
-3.9518535695835266E-01
-3.9517119178388271E-01
-3.9517119178105520E-01
-3.9515208398345802E-01
-3.9515208398300755E-01
-3.9515015867841274E-01
-3.9514784449276236E-01
-3.9003292562399322E-01
-3.9003292562394898E-01
-3.7014490552345169E-01
-3.7014490552312851E-01
-3.5094735220778683E-01
-3.5094700304031984E-01
-3.3275179364295027E-01
-3.3275179363826718E-01
-3.1589468535186876E-01
-3.1589468535160720E-01
-3.0073320466050890E-01
-3.0073320466025322E-01
-2.8763772060779835E-01
-2.8763656904437074E-01
-2.7697165183365791E-01
-2.7697165183273409E-01
-2.6907177638487945E-01
-2.6907177638181617E-01
-2.6421104870112155E-01
-2.6421104868673306E-01
-2.6256977397923675E-01
QETSC: Iter time (min)       =     2  23.32
QETSC: Iter time (max)       =     2  23.32
QETSC: Iter time (avg)       =     2  23.32
QETSC: Num. of conv. evals   =     2         384
QETSC: Eigenvalue (1)        =     2  -1.2740833956464990E+00
QETSC: Eigenvalue (nocc)     =     2  -2.6256977397923675E-01
QETSC: Max differrence       =     2   4.5910970112349814E-01
QETSC: Safe iteration        =     2      F
QETSC: Finished iter         =           2
 *****************************************************************
QETSC: SCF iter time=  23.330
 QETSC: Bins             =
                   -INF
-2.2999999999999998E+00
-2.1466666666666665E+00
-1.9933333333333332E+00
-1.8399999999999999E+00
-1.6866666666666665E+00
-1.5333333333333332E+00
-1.3799999999999999E+00
-1.2266666666666666E+00
-1.0733333333333333E+00
-9.1999999999999993E-01
-7.6666666666666661E-01
-6.1333333333333329E-01
-4.5999999999999996E-01
-3.0666666666666664E-01
-1.5333333333333332E-01
 0.0000000000000000E+00
QETSC: Started iter            3
QETSC: Bin type used         =           0
QETSC: Buffer used           =   4.5910970112349814E-01
QETSC: EPS interval          =      -INF,     0.000
QETSC: Inertia type          =           1
SLEPc: EPSSolve time = 3 1.759e-06
SLEPc: EPSSolve time = 14 2.621e-06
SLEPc: EPSSolve time = 0 2.466e-06
SLEPc: EPSSolve time = 2 2.618e-06
SLEPc: EPSSolve time = 1 1.810e-06
SLEPc: EPSSolve time = 4 1.899e-06
SLEPc: EPSSolve time = 5 1.794e-06
SLEPc: EPSSolve time = 15 2.068e-06
SLEPc: EPSSolve time = 13 2.555e+00
SLEPc: EPSSolve time = 6 3.001e+00
SLEPc: EPSSolve time = 7 4.413e+00
SLEPc: EPSSolve time = 10 8.212e+00
SLEPc: EPSSolve time = 8 9.910e+00
SLEPc: EPSSolve time = 11 1.285e+01
SLEPc: EPSSolve time = 9 1.528e+01
SLEPc: EPSSolve time = 12 2.221e+01
 QETSC: Eigenvalues         =
-1.4283282351049560E+00
-1.4280311335351583E+00
-1.4280311332897100E+00
-1.4271399230887309E+00
-1.4271399230802917E+00
-1.4256548912079905E+00
-1.4256548912071851E+00
-1.4235769892451295E+00
-1.4235760616686022E+00
-1.4209055278425309E+00
-1.4209055278418234E+00
-1.4176428326642609E+00
-1.4176428326641779E+00
-1.4137896285000500E+00
-1.4137896284986964E+00
-1.4093475167832725E+00
-1.4093472514454024E+00
-1.4043178773144256E+00
-1.4043178773142801E+00
-1.3987032273552680E+00
-1.3987032273551032E+00
-1.3925059335383734E+00
-1.3925059335378478E+00
-1.3857457494587839E+00
-1.3857119869551411E+00
-1.3783754295640962E+00
-1.3783754295636215E+00
-1.3704495236453136E+00
-1.3704495236447967E+00
-1.3619555532861325E+00
-1.3619555532858776E+00
-1.3529005791861153E+00
-1.3528966042264909E+00
-1.3432844133336643E+00
-1.3432844133335740E+00
-1.3331195858788760E+00
-1.3331195858788012E+00
-1.3224115768280815E+00
-1.3224115768280433E+00
-1.3111692926454561E+00
-1.3111684740066867E+00
-1.2994011882634384E+00
-1.2994011882633711E+00
-1.2871195523053389E+00
-1.2871195522941445E+00
-1.2743366513898777E+00
-1.2743366513892354E+00
-1.2610738248563791E+00
-1.2610603116006893E+00
-1.2473276711686561E+00
-1.2473276711685786E+00
-1.2331380744448679E+00
-1.2331380744448472E+00
-1.2185212227862592E+00
-1.2185212227860625E+00
-1.2035060829973494E+00
-1.2035022211645305E+00
-1.1881189484325785E+00
-1.1881189484325496E+00
-1.1724039846275010E+00
-1.1724039846274081E+00
-1.1564055130712538E+00
-1.1564055130711841E+00
-1.1401798053468766E+00
-1.1401796343477324E+00
-1.1237953611010383E+00
-1.1237953611009468E+00
-1.1073371149468143E+00
-1.1073371149467228E+00
-1.0909097556217886E+00
-1.0909097556217604E+00
-1.0746435070531908E+00
-1.0746427960153744E+00
-1.0586978155661526E+00
-1.0586978155660267E+00
-1.0432701539122928E+00
-1.0432701539122746E+00
-1.0285955029057541E+00
-1.0285955029057063E+00
-1.0149457768056280E+00
-1.0149451869376729E+00
-1.0026146702550565E+00
-1.0026146702545180E+00
-9.9702101989169079E-01
-9.9682994823936866E-01
-9.9682994800119695E-01
-9.9625915776235807E-01
-9.9625915775446439E-01
-9.9531565007485145E-01
-9.9531565007419698E-01
-9.9401349402226213E-01
-9.9400988930286638E-01
-9.9236502597885112E-01
-9.9236502597825349E-01
-9.9189175779172689E-01
-9.9189175778173921E-01
-9.9039972626257700E-01
-9.9039972626251094E-01
-9.8814725118377134E-01
-9.8814725118204738E-01
-9.8564797658245007E-01
-9.8564785345774220E-01
-9.8301567765957010E-01
-9.8301567765951869E-01
-9.8295285222520556E-01
-9.8295285222503315E-01
-9.8012661225200726E-01
-9.8012661225185127E-01
-9.7725051785201289E-01
-9.7725051785194117E-01
-9.7612609046907717E-01
-9.7612581310962132E-01
-9.7442829074775594E-01
-9.7442549075300877E-01
-9.7178414762443865E-01
-9.7178414762437026E-01
-9.7122857781108718E-01
-9.7122857781107930E-01
-9.6948242889734182E-01
-9.6948242889648073E-01
-9.6819424677312771E-01
-9.6819424677307986E-01
-9.6771886478332891E-01
-9.6771886478294145E-01
-9.6679041355954998E-01
-9.6679041355925888E-01
-9.6673080420989477E-01
-9.6672996893723595E-01
-8.4509189855449340E-01
-8.4480493780120880E-01
-8.4480493756126163E-01
-8.4394456820127128E-01
-8.4394456819324026E-01
-8.4251233427567473E-01
-8.4251233427492622E-01
-8.4051153251740551E-01
-8.4051011780370410E-01
-8.3794369969664839E-01
-8.3794369969603399E-01
-8.3481571972105828E-01
-8.3481571972099322E-01
-8.3113279355361525E-01
-8.3113279355214464E-01
-8.2690203327795375E-01
-8.2690202850637196E-01
-8.2213180802123842E-01
-8.2213180802110619E-01
-8.1683184668672382E-01
-8.1683184668656317E-01
-8.1101332457764508E-01
-8.1101332457610831E-01
-8.0473209808887669E-01
-8.0464519224855691E-01
-7.9787232484715520E-01
-7.9787232484566728E-01
-7.9058063448344773E-01
-7.9058063448280924E-01
-7.8283125196790737E-01
-7.8283125196767345E-01
-7.7464458796897429E-01
-7.7464377599697454E-01
-7.6604158018332125E-01
-7.6604158018328394E-01
-7.5704794149331722E-01
-7.5704794149323873E-01
-7.4769030094636657E-01
-7.4769030094634259E-01
-7.4009347275582660E-01
-7.4009347275546145E-01
-7.3899804068566000E-01
-7.3899129263878072E-01
-7.3893688308195160E-01
-7.3893688308041416E-01
-7.3799883766472241E-01
-7.3799882572810760E-01
-7.3593043274438219E-01
-7.3593043274402192E-01
-7.3529205367597028E-01
-7.3529205367595207E-01
-7.3120270372190810E-01
-7.3120270372188934E-01
-7.2902789136920043E-01
-7.2902677656847736E-01
-7.2800186189427840E-01
-7.2800186189420135E-01
-7.2509619529835234E-01
-7.2509619529826730E-01
-7.2016401359534510E-01
-7.2016401359532811E-01
-7.1786578931648048E-01
-7.1786377649601707E-01
-7.1774192809640547E-01
-7.1774192808353621E-01
-7.0972855541076951E-01
-7.0972855541069790E-01
-7.0885604978435435E-01
-7.0885604978432504E-01
-7.0725313391188627E-01
-7.0725313391113620E-01
-7.0087661259685219E-01
-7.0087661259678979E-01
-6.9658246238342536E-01
-6.9657333428739732E-01
-6.9537492392752542E-01
-6.9537492392747535E-01
-6.9147204747448454E-01
-6.9147204747442526E-01
-6.8576132127262557E-01
-6.8576132127253364E-01
-6.8165770395562542E-01
-6.8165671878627088E-01
-6.8005669840883354E-01
-6.8005662199714445E-01
-6.7485175344155013E-01
-6.7485175344151516E-01
-6.7155835742060954E-01
-6.7155835742053960E-01
-6.6390077727555608E-01
-6.6390077727526808E-01
-6.6325824317049387E-01
-6.6325824317034077E-01
-6.6128940120138602E-01
-6.6128940120130419E-01
-6.5296649252241434E-01
-6.5295965176823012E-01
-6.5095471616784917E-01
-6.5095471616777800E-01
-6.4532896888561042E-01
-6.4532896888525892E-01
-6.4209615360630923E-01
-6.4209615360622974E-01
-6.4065353041460293E-01
-6.4064865263912985E-01
-6.3135996961524321E-01
-6.3135996961509322E-01
-6.3046899573484538E-01
-6.3046899573477000E-01
-6.2659793407984044E-01
-6.2659793407876851E-01
-6.2081633229210686E-01
-6.2081633229196354E-01
-6.2049278828610677E-01
-6.2049278828609267E-01
-6.1080151852439490E-01
-6.1080151852433451E-01
-6.1052824216029267E-01
-6.1052810051829776E-01
-6.0746253560289198E-01
-6.0728386704271353E-01
-6.0147043944057876E-01
-6.0146488763933992E-01
-6.0055858657754113E-01
-6.0055858657739780E-01
-5.9255684753381643E-01
-5.9255684753329174E-01
-5.9096970755146450E-01
-5.9096970755131739E-01
-5.8794766735784054E-01
-5.8794766735677417E-01
-5.8412675602944752E-01
-5.8412675602024766E-01
-5.8182136695963704E-01
-5.8182136695943687E-01
-5.7622606634215601E-01
-5.7622606634208318E-01
-5.7317566153828059E-01
-5.7316360839317593E-01
-5.6889375671826414E-01
-5.6889310015220718E-01
-5.6860736251796562E-01
-5.6860736251782973E-01
-5.6506526837309112E-01
-5.6506526837304183E-01
-5.6215659724625422E-01
-5.6215659724624756E-01
-5.5755215506551603E-01
-5.5755215506549105E-01
-5.5603188878812870E-01
-5.5603188878807630E-01
-5.5066584490818571E-01
-5.5066584490809978E-01
-5.5052402057019423E-01
-5.5052402057003713E-01
-5.4963895119618922E-01
-5.4963895119608663E-01
-5.4562869764432975E-01
-5.4562412013546835E-01
-5.4443368634588052E-01
-5.4443091114675846E-01
-5.4132193169654974E-01
-5.4132193169626142E-01
-5.3886695380595662E-01
-5.3886695380518002E-01
-5.3758412104043263E-01
-5.3758412103987352E-01
-5.3437876335835255E-01
-5.3437876335336143E-01
-5.3397415971433826E-01
-5.3397415970113649E-01
-5.3171550155551994E-01
-5.3161340552378555E-01
-5.3133841604236409E-01
-5.3133822796316199E-01
-5.2974709517091234E-01
-5.2974709517084417E-01
-5.2939729496423926E-01
-5.2939729495929899E-01
-5.2753102382114281E-01
-5.2753102382108275E-01
-5.2616819724123420E-01
-5.2616809916413021E-01
-5.2601702794532090E-01
-5.2601702794518990E-01
-5.2480893836465825E-01
-5.2480876207462168E-01
-5.2386253411796257E-01
-5.2386253411657502E-01
-5.2320982086234213E-01
-5.2320982086230672E-01
-5.2313813490736127E-01
-5.2313813490728245E-01
-5.2260132591211561E-01
-5.2260132591080055E-01
-5.2222665466349627E-01
-5.2222401462060275E-01
-5.2199196950456928E-01
-5.2199196950323334E-01
-5.2188456113826809E-01
-5.2188456113054160E-01
-5.2186619400336498E-01
-5.2186326376133774E-01
-5.2186326352464874E-01
-5.2093641147987546E-01
-5.2090946144107342E-01
-5.2090946120445114E-01
-5.2083623122034162E-01
-5.2083623122025946E-01
-5.2080404729832330E-01
-5.2080404729038798E-01
-5.2057493310973280E-01
-5.2057493310905656E-01
-5.2021085463622729E-01
-5.2020875609907269E-01
-5.1973031406983472E-01
-5.1973031406917991E-01
-5.1916674755668002E-01
-5.1916674755659942E-01
-5.1900909171247367E-01
-5.1900909171219822E-01
-5.1854604044496455E-01
-5.1854604044337749E-01
-5.1794743018892531E-01
-5.1794511146557465E-01
-5.1763727467211573E-01
-5.1763357413653399E-01
-5.1733162257193999E-01
-5.1733162257152154E-01
-5.1679008836269880E-01
-5.1679008836052320E-01
-5.1673533973434838E-01
-5.1673533973365404E-01
-5.1636452492773077E-01
-5.1636452482804940E-01
-5.1620650265164436E-01
-5.1620650264909529E-01
-5.1615223162248425E-01
-5.1599537408216589E-01
-5.1599470305429540E-01
-5.1599470295466099E-01
-5.1401538009756065E-01
-5.1401538009650494E-01
-4.9799619689530755E-01
-4.9799619689522268E-01
-4.8362039510311255E-01
-4.8362039510242361E-01
-4.7123318575742063E-01
-4.7123239271839396E-01
-4.6116800878907549E-01
-4.6116800878823699E-01
-4.5372848055248949E-01
-4.5372848054392884E-01
-4.4915806379669770E-01
-4.4915806354855708E-01
-4.4761609116166901E-01
QETSC: Iter time (min)       =     3  25.06
QETSC: Iter time (max)       =     3  25.06
QETSC: Iter time (avg)       =     3  25.06
QETSC: Num. of conv. evals   =     3         384
QETSC: Eigenvalue (1)        =     3  -1.4283282351049560E+00
QETSC: Eigenvalue (nocc)     =     3  -4.4761609116166901E-01
QETSC: Max differrence       =     3   1.8504631718243225E-01
QETSC: Safe iteration        =     3      F
QETSC: Finished iter         =           3
 *****************************************************************
QETSC: SCF iter time=  25.070
 QETSC: Bins             =
                   -INF
-2.2999999999999998E+00
-2.1466666666666665E+00
-1.9933333333333332E+00
-1.8399999999999999E+00
-1.6866666666666665E+00
-1.5333333333333332E+00
-1.3799999999999999E+00
-1.2266666666666666E+00
-1.0733333333333333E+00
-9.1999999999999993E-01
-7.6666666666666661E-01
-6.1333333333333329E-01
-4.5999999999999996E-01
-3.0666666666666664E-01
-1.5333333333333332E-01
 0.0000000000000000E+00
QETSC: Started iter            4
QETSC: Bin type used         =           0
QETSC: Buffer used           =   1.8504631718243225E-01
QETSC: EPS interval          =      -INF,     0.000
QETSC: Inertia type          =           1
SLEPc: EPSSolve time = 14 2.292e-06
SLEPc: EPSSolve time = 5 2.287e-06
SLEPc: EPSSolve time = 15 2.272e-06
SLEPc: EPSSolve time = 4 2.294e-06
SLEPc: EPSSolve time = 13 2.306e-06
SLEPc: EPSSolve time = 3 2.264e-06
SLEPc: EPSSolve time = 0 3.382e-06
SLEPc: EPSSolve time = 2 1.892e-06
SLEPc: EPSSolve time = 1 2.381e-06
SLEPc: EPSSolve time = 6 3.912e+00
SLEPc: EPSSolve time = 7 4.398e+00
SLEPc: EPSSolve time = 10 6.767e+00
SLEPc: EPSSolve time = 8 7.612e+00
SLEPc: EPSSolve time = 9 8.800e+00
SLEPc: EPSSolve time = 11 1.275e+01
SLEPc: EPSSolve time = 12 1.743e+01
 QETSC: Eigenvalues         =
-1.4626216750398922E+00
-1.4623253107722027E+00
-1.4623253106795482E+00
-1.4614363073681527E+00
-1.4614363073423848E+00
-1.4599549362857485E+00
-1.4599549362856308E+00
-1.4578820639005121E+00
-1.4578812528314979E+00
-1.4552171366974085E+00
-1.4552171366942717E+00
-1.4519622533577625E+00
-1.4519622533576153E+00
-1.4481181298752075E+00
-1.4481181298749148E+00
-1.4436863266381208E+00
-1.4436859758035139E+00
-1.4386679925700347E+00
-1.4386679925694310E+00
-1.4330656492633433E+00
-1.4330656492630123E+00
-1.4268814724480690E+00
-1.4268814724399754E+00
-1.4201344653308661E+00
-1.4201018585746761E+00
-1.4127789083969424E+00
-1.4127789083966056E+00
-1.4048673753375562E+00
-1.4048673753374590E+00
-1.3963876877173298E+00
-1.3963876877170194E+00
-1.3873464706371896E+00
-1.3873427142963994E+00
-1.3777434851400230E+00
-1.3777434851399788E+00
-1.3675904932318119E+00
-1.3675904932317757E+00
-1.3568925721592024E+00
-1.3568925721591707E+00
-1.3456580663622448E+00
-1.3456571776145947E+00
-1.3338946274152528E+00
-1.3338946274152272E+00
-1.3216138296277371E+00
-1.3216138296267621E+00
-1.3088269385611979E+00
-1.3088269385611722E+00
-1.2955534549260415E+00
-1.2955413319987341E+00
-1.2817907001504087E+00
-1.2817907001503710E+00
-1.2675748420556645E+00
-1.2675748420555537E+00
-1.2529208023789913E+00
-1.2529208023789711E+00
-1.2378552875133766E+00
-1.2378511977433273E+00
-1.2224013613214488E+00
-1.2224013613214382E+00
-1.2066000037056577E+00
-1.2066000037056477E+00
-1.1904910982427306E+00
-1.1904910982427184E+00
-1.1741256079319404E+00
-1.1741254367675937E+00
-1.1575655220147887E+00
-1.1575655220147691E+00
-1.1408878360471895E+00
-1.1408878360471686E+00
-1.1241876778323681E+00
-1.1241876778323352E+00
-1.1075844063732201E+00
-1.1075829489104150E+00
-1.0912237118637271E+00
-1.0912237118637107E+00
-1.0752911084133443E+00
-1.0752911084133288E+00
-1.0600098206810626E+00
-1.0600098206810336E+00
-1.0456458320190460E+00
-1.0456454065518366E+00
-1.0324983340601277E+00
-1.0324983340600957E+00
-1.0208790157260739E+00
-1.0208790157259233E+00
-1.0201272477792378E+00
-1.0199377576412425E+00
-1.0199377575451378E+00
-1.0193716381732667E+00
-1.0193716381505722E+00
-1.0184364527334584E+00
-1.0184364527332708E+00
-1.0171462746945721E+00
-1.0171427160370345E+00
-1.0155142183595036E+00
-1.0155142183568684E+00
-1.0135705661711703E+00
-1.0135705661710228E+00
-1.0113462663586166E+00
-1.0113462663585462E+00
-1.0110679510906662E+00
-1.0110679510906591E+00
-1.0088835444118875E+00
-1.0088833658805492E+00
-1.0062358665238296E+00
-1.0062358665233559E+00
-1.0034717435267415E+00
-1.0034717435264129E+00
-1.0032610459555742E+00
-1.0032607982866795E+00
-1.0006776307387752E+00
-1.0006776307329348E+00
-9.9796347171143129E-01
-9.9796287175558063E-01
-9.9752021608421970E-01
-9.9752021608419439E-01
-9.9546689649865494E-01
-9.9546689649838094E-01
-9.9375774284830209E-01
-9.9375774284821605E-01
-9.9336256815419754E-01
-9.9336256815408008E-01
[...]

---------------------------------------------- PETSc Performance Summary: ----------------------------------------------

/home/keceli/scratch2/siesta-qetsc/Obj/siesta on a arch-xl named Q02-I1-J07.vesta.itd with 16 processors, by Unknown Tue Jan  3 23:02:05 2017
Using Petsc Development GIT revision: v3.7.3-1204-g68f0caa  GIT Date: 2016-08-19 16:41:02 -0500

                         Max       Max/Min        Avg      Total 
Time (sec):           2.756e+02      1.00000   2.756e+02
Objects:              8.410e+02      1.36748   7.295e+02
Flops:                1.622e+10   6622.25699   6.239e+09  9.982e+10
Flops/sec:            5.886e+07   6622.25699   2.264e+07  3.622e+08
MPI Messages:         6.881e+03      2.25164   4.577e+03  7.323e+04
MPI Message Lengths:  4.314e+07      1.23158   8.686e+03  6.361e+08
MPI Reductions:       4.502e+03      1.00000

Flop counting convention: 1 flop = 1 real number operation of type (multiply/divide/add/subtract)
                            e.g., VecAXPY() for real vectors of length N --> 2N flops
                            and VecAXPY() for complex vectors of length N --> 8N flops

Summary of Stages:   ----- Time ------  ----- Flops -----  --- Messages ---  -- Message Lengths --  -- Reductions --
                        Avg     %Total     Avg     %Total   counts   %Total     Avg         %Total   counts   %Total 
 0:      Main Stage: 1.9867e-04   0.0%  0.0000e+00   0.0%  0.000e+00   0.0%  0.000e+00        0.0%  0.000e+00   0.0% 
 1:     siesta_init: 2.8539e+00   1.0%  0.0000e+00   0.0%  0.000e+00   0.0%  0.000e+00        0.0%  0.000e+00   0.0% 
 2:   siesta_forces: 3.0655e+01  11.1%  0.0000e+00   0.0%  0.000e+00   0.0%  0.000e+00        0.0%  0.000e+00   0.0% 
 3:    siesta_solve: 1.1066e-02   0.0%  0.0000e+00   0.0%  0.000e+00   0.0%  0.000e+00        0.0%  0.000e+00   0.0% 
 4:    siesta2qetsc: 2.0739e-01   0.1%  0.0000e+00   0.0%  1.580e+02   0.2%  5.672e-01        0.0%  5.300e+01   1.2% 
 5: qetsc_setup_eps: 1.9292e+00   0.7%  3.9191e+07   0.0%  1.203e+04  16.4%  7.575e+03       87.2%  3.600e+01   0.8% 
 6: qetsc_solve_eps: 1.3449e+02  48.8%  9.9779e+10 100.0%  2.700e+02   0.4%  2.212e-02        0.0%  7.200e+01   1.6% 
 7:   qetsc_eigvals: 9.4458e-02   0.0%  0.0000e+00   0.0%  0.000e+00   0.0%  0.000e+00        0.0%  0.000e+00   0.0% 
 8:   qetsc_density: 1.7858e+01   6.5%  0.0000e+00   0.0%  6.077e+04  83.0%  1.110e+03       12.8%  4.340e+03  96.4% 
10:     siesta_misc: 8.6357e+01  31.3%  0.0000e+00   0.0%  0.000e+00   0.0%  0.000e+00        0.0%  0.000e+00   0.0% 
11:     siesta_move: 1.0921e-01   0.0%  0.0000e+00   0.0%  0.000e+00   0.0%  0.000e+00        0.0%  0.000e+00   0.0% 
12: siesta_analysis: 5.8010e-02   0.0%  0.0000e+00   0.0%  0.000e+00   0.0%  0.000e+00        0.0%  0.000e+00   0.0% 
13:     qetsc_clean: 3.6765e-06   0.0%  0.0000e+00   0.0%  0.000e+00   0.0%  0.000e+00        0.0%  0.000e+00   0.0% 
14:      siesta_end: 9.4691e-01   0.3%  0.0000e+00   0.0%  0.000e+00   0.0%  0.000e+00        0.0%  0.000e+00   0.0% 

------------------------------------------------------------------------------------------------------------------------
See the 'Profiling' chapter of the users' manual for details on interpreting output.
Phase summary info:
   Count: number of times phase was executed
   Time and Flops: Max - maximum over all processors
                   Ratio - ratio of maximum to minimum over all processors
   Mess: number of messages sent
   Avg. len: average message length (bytes)
   Reduct: number of global reductions
   Global: entire computation
   Stage: stages of a computation. Set stages with PetscLogStagePush() and PetscLogStagePop().
      %T - percent time in this phase         %F - percent flops in this phase
      %M - percent messages in this phase     %L - percent message lengths in this phase
      %R - percent reductions in this phase
   Total Mflop/s: 10e-6 * (sum of flops over all processors)/(max time over all processors)
------------------------------------------------------------------------------------------------------------------------
Event                Count      Time (sec)     Flops                             --- Global ---  --- Stage ---   Total
                   Max Ratio  Max     Ratio   Max  Ratio  Mess   Avg len Reduct  %T %F %M %L %R  %T %F %M %L %R Mflop/s
------------------------------------------------------------------------------------------------------------------------

--- Event Stage 0: Main Stage


--- Event Stage 1: siesta_init


--- Event Stage 2: siesta_forces


--- Event Stage 3: siesta_solve


--- Event Stage 4: siesta2qetsc

MatConvert             2 1.0 1.3603e-03 1.1 0.00e+00 0.0 0.0e+00 0.0e+00 0.0e+00  0  0  0  0  0   1  0  0  0  0     0
MatAssemblyBegin      10 1.0 7.0275e-0254.4 0.00e+00 0.0 0.0e+00 0.0e+00 4.0e+01  0  0  0  0  1  18  0  0  0 75     0
MatAssemblyEnd        10 1.0 6.0651e-03 1.0 0.00e+00 0.0 1.6e+02 2.6e+02 1.1e+01  0  0  0  0  0   3  0100100 21     0
VecSet                 3 1.0 1.2203e-05 1.5 0.00e+00 0.0 0.0e+00 0.0e+00 0.0e+00  0  0  0  0  0   0  0  0  0  0     0

--- Event Stage 5: qetsc_setup_eps

MatCholFctrSym         1 1.0 5.1301e-01 1.1 0.00e+00 0.0 0.0e+00 0.0e+00 0.0e+00  0  0  0  0  0  25  0  0  0  0     0
MatCholFctrNum         1 1.0 4.6345e-01 1.0 0.00e+00 0.0 0.0e+00 0.0e+00 0.0e+00  0  0  0  0  0  23  0  0  0  0     0
MatCopy                7 1.0 1.5805e-02 5.0 0.00e+00 0.0 0.0e+00 0.0e+00 0.0e+00  0  0  0  0  0   1  0  0  0  0     0
MatConvert             4 1.0 2.1282e-02 1.7 0.00e+00 0.0 0.0e+00 0.0e+00 0.0e+00  0  0  0  0  0   1  0  0  0  0     0
MatScale              16 1.0 9.1548e-03 5.4 2.45e+06 1.0 0.0e+00 0.0e+00 0.0e+00  0  0  0  0  0   0100  0  0  0  4281
MatAssemblyBegin      11 1.0 3.7567e-05 1.7 0.00e+00 0.0 0.0e+00 0.0e+00 0.0e+00  0  0  0  0  0   0  0  0  0  0     0
MatAssemblyEnd        11 1.0 4.1339e-02 1.5 0.00e+00 0.0 0.0e+00 0.0e+00 0.0e+00  0  0  0  0  0   2  0  0  0  0     0
MatGetRow           5888 1.0 5.0308e-02 1.0 0.00e+00 0.0 0.0e+00 0.0e+00 0.0e+00  0  0  0  0  0   3  0  0  0  0     0
MatGetRowIJ            1 1.0 3.2987e-06 2.8 0.00e+00 0.0 0.0e+00 0.0e+00 0.0e+00  0  0  0  0  0   0  0  0  0  0     0
MatGetSubMatrice      10 1.0 7.1611e-01 1.1 0.00e+00 0.0 1.2e+04 4.6e+04 2.0e+01  0  0 16 87  0  35  0100100 56     0
MatGetOrdering         1 1.0 3.8784e-04 1.4 0.00e+00 0.0 0.0e+00 0.0e+00 0.0e+00  0  0  0  0  0   0  0  0  0  0     0
MatAXPY                9 1.0 2.2673e-01 1.1 0.00e+00 0.0 0.0e+00 0.0e+00 0.0e+00  0  0  0  0  0  12  0  0  0  0     0
MatRedundantMat       10 1.0 7.4619e-01 1.2 0.00e+00 0.0 1.2e+04 4.6e+04 2.0e+01  0  0 16 87  0  37  0100100 56     0
VecSet                 7 1.0 5.0003e-04 2.1 0.00e+00 0.0 0.0e+00 0.0e+00 0.0e+00  0  0  0  0  0   0  0  0  0  0     0
EPSSetUp               1 1.0 1.3416e+00 1.0 0.00e+00 0.0 2.4e+03 4.6e+04 1.8e+01  0  0  3 17  0  70  0 20 20 50     0
STSetUp                2 1.0 1.1707e+00 1.1 0.00e+00 0.0 0.0e+00 0.0e+00 2.0e+00  0  0  0  0  0  59  0  0  0  6     0
KSPSetUp               1 1.0 7.0181e-06 4.3 0.00e+00 0.0 0.0e+00 0.0e+00 0.0e+00  0  0  0  0  0   0  0  0  0  0     0
PCSetUp                1 1.0 9.5917e-01 1.1 0.00e+00 0.0 0.0e+00 0.0e+00 0.0e+00  0  0  0  0  0  48  0  0  0  0     0

--- Event Stage 6: qetsc_solve_eps

MatMult             9161 0.0 4.2428e+01 0.0 1.11e+10 0.0 0.0e+00 0.0e+00 0.0e+00  6 71  0  0  0  13 71  0  0  0  1663
MatSolve            3513 0.0 5.0680e+01 0.0 0.00e+00 0.0 0.0e+00 0.0e+00 0.0e+00  7  0  0  0  0  15  0  0  0  0     0
MatCholFctrNum        21 2.3 9.5280e+00 2.3 0.00e+00 0.0 0.0e+00 0.0e+00 0.0e+00  2  0  0  0  0   4  0  0  0  0     0
MatCopy               21 2.3 2.0585e+00 2.3 0.00e+00 0.0 0.0e+00 0.0e+00 0.0e+00  0  0  0  0  0   1  0  0  0  0     0
MatAssemblyBegin      42 2.3 4.1992e-05 2.2 0.00e+00 0.0 0.0e+00 0.0e+00 0.0e+00  0  0  0  0  0   0  0  0  0  0     0
MatAssemblyEnd        42 2.3 1.0093e-01 2.0 0.00e+00 0.0 0.0e+00 0.0e+00 0.0e+00  0  0  0  0  0   0  0  0  0  0     0
MatGetRow         185472 2.3 1.5286e+00 2.4 0.00e+00 0.0 0.0e+00 0.0e+00 0.0e+00  0  0  0  0  0   1  0  0  0  0     0
MatZeroEntries        21 2.3 1.7347e-02 1.2 0.00e+00 0.0 0.0e+00 0.0e+00 0.0e+00  0  0  0  0  0   0  0  0  0  0     0
MatAXPY               21 2.3 4.1457e+00 2.3 0.00e+00 0.0 0.0e+00 0.0e+00 0.0e+00  1  0  0  0  0   2  0  0  0  0     0
VecDot               545 0.0 5.6581e-03 0.0 3.21e+06 0.0 0.0e+00 0.0e+00 0.0e+00  0  0  0  0  0   0  0  0  0  0  3596
VecCopy             4136 0.0 2.7011e-02 0.0 0.00e+00 0.0 0.0e+00 0.0e+00 0.0e+00  0  0  0  0  0   0  0  0  0  0     0
VecSet             12792473.8 7.9660e-02579.5 0.00e+00 0.0 0.0e+00 0.0e+00 0.0e+00  0  0  0  0  0   0  0  0  0  0     0
VecSetRandom          10 0.0 1.7611e-02 0.0 0.00e+00 0.0 0.0e+00 0.0e+00 0.0e+00  0  0  0  0  0   0  0  0  0  0     0
EPSSetUp               9 1.0 7.1330e+00 1.0 0.00e+00 0.0 2.7e+02 6.0e+00 1.8e+01  3  0  0  0  0   5  0100100 25     0
EPSSolve               9 1.0 1.3457e+02 1.0 1.62e+10 0.0 2.7e+02 6.0e+00 7.2e+01 49100  0  0  2 100100100100100   741
STSetUp               17 1.0 6.0659e+00 1.0 0.00e+00 0.0 0.0e+00 0.0e+00 0.0e+00  2  0  0  0  0   4  0  0  0  0     0
STApply             3513 0.0 6.7484e+01 0.0 4.27e+09 0.0 0.0e+00 0.0e+00 0.0e+00 10 27  0  0  0  20 27  0  0  0   400
STMatSolve          3513 0.0 5.1197e+01 0.0 0.00e+00 0.0 0.0e+00 0.0e+00 0.0e+00  8  0  0  0  0  16  0  0  0  0     0
KSPSetUp              21 2.3 3.7323e-05 3.1 0.00e+00 0.0 0.0e+00 0.0e+00 0.0e+00  0  0  0  0  0   0  0  0  0  0     0
KSPSolve            3513 0.0 5.0811e+01 0.0 0.00e+00 0.0 0.0e+00 0.0e+00 0.0e+00  8  0  0  0  0  15  0  0  0  0     0
PCSetUp               21 2.3 9.5286e+00 2.3 0.00e+00 0.0 0.0e+00 0.0e+00 0.0e+00  2  0  0  0  0   4  0  0  0  0     0
PCApply             3513 0.0 5.0698e+01 0.0 0.00e+00 0.0 0.0e+00 0.0e+00 0.0e+00  8  0  0  0  0  15  0  0  0  0     0
BVCreate              30 0.0 1.9083e-02 0.0 0.00e+00 0.0 0.0e+00 0.0e+00 0.0e+00  0  0  0  0  0   0  0  0  0  0     0
BVCopy               623 0.0 6.1492e-03 0.0 0.00e+00 0.0 0.0e+00 0.0e+00 0.0e+00  0  0  0  0  0   0  0  0  0  0     0
BVMultVec           5103 0.0 2.1769e+00 0.0 1.97e+09 0.0 0.0e+00 0.0e+00 0.0e+00  0 11  0  0  0   1 11  0  0  0  4938
BVMultInPlace        124 0.0 5.9885e-01 0.0 1.10e+09 0.0 0.0e+00 0.0e+00 0.0e+00  0  7  0  0  0   0  7  0  0  0 12403
BVDotVec            5103 0.0 2.4778e+01 0.0 8.20e+09 0.0 0.0e+00 0.0e+00 0.0e+00  4 50  0  0  0   7 50  0  0  0  2030
BVOrthogonalizeV    2968 0.0 2.7004e+01 0.0 1.02e+10 0.0 0.0e+00 0.0e+00 0.0e+00  4 61  0  0  0   8 61  0  0  0  2261
BVScale             3513 0.0 2.8857e-02 0.0 1.03e+07 0.0 0.0e+00 0.0e+00 0.0e+00  0  0  0  0  0   0  0  0  0  0  2267
BVNormVec            545 0.0 2.5293e+00 0.0 6.66e+08 0.0 0.0e+00 0.0e+00 0.0e+00  0  4  0  0  0   1  4  0  0  0  1669
BVSetRandom           10 0.0 1.7709e-02 0.0 0.00e+00 0.0 0.0e+00 0.0e+00 0.0e+00  0  0  0  0  0   0  0  0  0  0     0
DSSolve              113 0.0 6.3374e-01 0.0 0.00e+00 0.0 0.0e+00 0.0e+00 0.0e+00  0  0  0  0  0   0  0  0  0  0     0
DSVectors           4501 0.0 1.0841e-02 0.0 0.00e+00 0.0 0.0e+00 0.0e+00 0.0e+00  0  0  0  0  0   0  0  0  0  0     0
DSOther              124 0.0 1.7323e-02 0.0 0.00e+00 0.0 0.0e+00 0.0e+00 0.0e+00  0  0  0  0  0   0  0  0  0  0     0

--- Event Stage 7: qetsc_eigvals


--- Event Stage 8: qetsc_density

VecCopy             3456 1.0 1.5879e-02 1.4 0.00e+00 0.0 0.0e+00 0.0e+00 0.0e+00  0  0  0  0  0   0  0  0  0  0     0
VecSet                 1 1.0 1.8616e-05 3.6 0.00e+00 0.0 0.0e+00 0.0e+00 0.0e+00  0  0  0  0  0   0  0  0  0  0     0
VecScatterBegin     6912 1.0 6.9127e-01 1.1 0.00e+00 0.0 5.2e+04 1.5e+03 3.5e+03  0  0 71 12 77   4  0 85 94 80     0
VecScatterEnd       3456 1.0 3.7366e-01 1.1 0.00e+00 0.0 0.0e+00 0.0e+00 0.0e+00  0  0  0  0  0   2  0  0  0  0     0
BVCopy              3456 1.0 4.0485e-02 1.4 0.00e+00 0.0 0.0e+00 0.0e+00 0.0e+00  0  0  0  0  0   0  0  0  0  0     0

--- Event Stage 9: Unknown


--- Event Stage 10: siesta_misc


--- Event Stage 11: siesta_move


--- Event Stage 12: siesta_analysis


--- Event Stage 13: qetsc_clean


--- Event Stage 14: siesta_end

------------------------------------------------------------------------------------------------------------------------

Memory usage is given in bytes:

Object Type          Creations   Destructions     Memory  Descendants' Mem.
Reports information only for process 0.

--- Event Stage 0: Main Stage


--- Event Stage 1: siesta_init


--- Event Stage 2: siesta_forces


--- Event Stage 3: siesta_solve


--- Event Stage 4: siesta2qetsc

              Matrix     9              0            0     0.
              Vector    19              1         1648     0.
      Vector Scatter     4              0            0     0.
           Index Set     4              4         7552     0.

--- Event Stage 5: qetsc_setup_eps

              Matrix     9              1      4324948     0.
              Vector    18              0            0     0.
           Index Set    28             21        16464     0.
          EPS Solver     2              0            0     0.
  Spectral Transform     2              0            0     0.
       Krylov Solver     2              0            0     0.
      Preconditioner     2              0            0     0.
       Basis Vectors     3              0            0     0.
         PetscRandom     1              0            0     0.
              Region     2              0            0     0.
       Direct Solver     2              0            0     0.

--- Event Stage 6: qetsc_solve_eps

              Matrix     9              9     44435628     0.
              Vector    45             45       704664     0.
       Basis Vectors     9              9         9504     0.

--- Event Stage 7: qetsc_eigvals


--- Event Stage 8: qetsc_density

              Vector    10              9       226800     0.
      Vector Scatter   145            144       167616     0.
           Index Set   289            289       438544     0.

--- Event Stage 9: Unknown


--- Event Stage 10: siesta_misc


--- Event Stage 11: siesta_move

              Matrix     0             17     35448008     0.
              Vector     0             37      2725360     0.
      Vector Scatter     0              5         4944     0.
           Index Set     0              7        17264     0.
          EPS Solver     0              2        23528     0.
  Spectral Transform     0              2         1632     0.
       Krylov Solver     0              2         2336     0.
      Preconditioner     0              2         1952     0.
       Basis Vectors     0              3         3168     0.
         PetscRandom     0              1          638     0.
              Region     0              2         1312     0.
       Direct Solver     0              2       109992     0.

--- Event Stage 12: siesta_analysis


--- Event Stage 13: qetsc_clean


--- Event Stage 14: siesta_end

              Viewer     1              0            0     0.
========================================================================================================================
Average time to get PetscTime(): 1.355e-07
Average time for MPI_Barrier(): 1.69525e-06
Average time for zero size MPI_Send(): 1.07572e-05
#PETSc Option Table entries:
-eps_interval -2.3,0.
-eps_krylovschur_detect_zeros 0
-eps_krylovschur_partitions 16
-ioptbin 7
-ioptdensity 0
-ioptinertia 1
-ioptleft 2
-ioptwrite 1
-log_view
-mat_mumps_cntl_3 1e-12
-mat_mumps_icntl_13 1
-mat_mumps_icntl_23 0
-mat_mumps_icntl_24 1
-mat_mumps_icntl_7 5
-mat_type mpisbaij
#End of PETSc Option Table entries
Compiled with FORTRAN kernels
Compiled with full precision matrices (default)
sizeof(short) 2 sizeof(int) 4 sizeof(long) 8 sizeof(void*) 8 sizeof(PetscScalar) 8 sizeof(PetscInt) 4
Configure options: --known-has-attribute-aligned=1 --download-chaco=0 --download-cmake=0 --download-hypre=0 --download-metis=1 --download-mumps=1 --download-parmetis=1 --download-plapack=0 --download-prometheus=0 --download-ptscotch=1 --download-spai=0 --download-spooles=0 --download-superlu=0 --download-superlu_dist=0 --download-triangle=0 --known-bits-per-byte=8 --known-level1-dcache-assoc=0 --known-level1-dcache-linesize=32 --known-level1-dcache-size=32768 --known-memcmp-ok=1 --known-mpi-c-double-complex=1 --known-mpi-int64_t=1 --known-mpi-long-double=1 --known-mpi-shared-libraries=0 --known-sdot-returns-double=0 --known-sizeof-MPI_Comm=4 --known-sizeof-MPI_Fint=4 --known-sizeof-char=1 --known-sizeof-double=8 --known-sizeof-float=4 --known-sizeof-int=4 --known-sizeof-long-long=8 --known-sizeof-long=8 --known-sizeof-short=2 --known-sizeof-size_t=8 --known-sizeof-void-p=8 --known-snrm2-returns-double=0 --with-batch=1 --with-blacs-include=/soft/libraries/alcf/current/xl/SCALAPACK/ --with-blacs-lib=/soft/libraries/alcf/current/xl/SCALAPACK/lib/libscalapack.a --with-blas-lapack-lib="-L/soft/libraries/alcf/current/xl/LAPACK/lib -llapack -L/soft/libraries/alcf/current/xl/BLAS/lib -lblas" --with-cc=mpixlc_r --with-clib-autodetect=0 --with-cxx=mpixlcxx_r --with-cxxlib-autodetect=0 --with-debugging=0 --with-fc="mpixlf77_r -qnosave" --with-fortran-kernels=1 --with-fortranlib-autodetect=0 --with-is-color-value-type=short --with-scalapack-include=/soft/libraries/alcf/current/xl/SCALAPACK/ --with-scalapack-lib=/soft/libraries/alcf/current/xl/SCALAPACK/lib/libscalapack.a --with-shared-libraries=0 --with-x=0 -COPTFLAGS=" -g -O3 -qhot=level=0 -qsimd=auto -qmaxmem=-1 -qstrict -qstrict_induction" -CXXOPTFLAGS="  -g -O3 -qhot=level=0 -qsimd=auto -qmaxmem=-1 -qstrict -qstrict_induction" -FOPTFLAGS=" -g -O3 -qhot=level=0 -qsimd=auto -qmaxmem=-1 -qstrict -qstrict_induction" LIBS="-lmpichcxx-gcc -lmpichf77-gcc -L/soft/compilers/ibmcmp-feb2015/vacpp/bg/12.1/bglib64 -libmc++ -L/soft/compilers/ibmcmp-feb2015/xlf/bg/14.1/bglib64 -lxlf90_r -lxlomp_ser -lxlfmath" PETSC_ARCH=arch-xl
-----------------------------------------
Libraries compiled on Sat Aug 20 04:19:47 2016 on vestalac2 
Machine characteristics: Linux-2.6.32-573.18.1.el6.ppc64-ppc64-with-redhat-6.7-Santiago
Using PETSc directory: /home/keceli/scratch2/petsc
Using PETSc arch: arch-xl
-----------------------------------------

Using C compiler: mpixlc_r   -g -O3 -qhot=level=0 -qsimd=auto -qmaxmem=-1 -qstrict -qstrict_induction  ${COPTFLAGS} ${CFLAGS}
Using Fortran compiler: mpixlf77_r -qnosave  -g -O3 -qhot=level=0 -qsimd=auto -qmaxmem=-1 -qstrict -qstrict_induction   ${FOPTFLAGS} ${FFLAGS} 
-----------------------------------------

Using include paths: -I/home/keceli/scratch2/petsc/arch-xl/include -I/home/keceli/scratch2/petsc/include -I/home/keceli/scratch2/petsc/include -I/home/keceli/scratch2/petsc/arch-xl/include -I/bgsys/drivers/V1R2M4/ppc64/comm/include -I/bgsys/drivers/V1R2M4/ppc64/comm/lib/xl -I/bgsys/drivers/V1R2M4/ppc64 -I/bgsys/drivers/V1R2M4/ppc64/comm/sys/include -I/bgsys/drivers/V1R2M4/ppc64/spi/include -I/bgsys/drivers/V1R2M4/ppc64/spi/include/kernel/cnk
-----------------------------------------

Using C linker: mpixlc_r
Using Fortran linker: mpixlf77_r -qnosave
Using libraries: -Wl,-rpath,/home/keceli/scratch2/petsc/arch-xl/lib -L/home/keceli/scratch2/petsc/arch-xl/lib -lpetsc -Wl,-rpath,/home/keceli/scratch2/petsc/arch-xl/lib -L/home/keceli/scratch2/petsc/arch-xl/lib -lcmumps -ldmumps -lsmumps -lzmumps -lmumps_common -lpord -Wl,-rpath,/soft/libraries/alcf/current/xl/SCALAPACK/lib -L/soft/libraries/alcf/current/xl/SCALAPACK/lib -lscalapack -L/soft/libraries/alcf/current/xl/LAPACK/lib -llapack -L/soft/libraries/alcf/current/xl/BLAS/lib -lblas -lparmetis -lmetis -lptesmumps -lptscotch -lptscotcherr -lscotch -lscotcherr -lrt -lm -lpthread -ldl -lmpichcxx-gcc -lmpichf77-gcc -L/soft/compilers/ibmcmp-feb2015/vacpp/bg/12.1/bglib64 -libmc++ -L/soft/compilers/ibmcmp-feb2015/xlf/bg/14.1/bglib64 -lxlf90_r -lxlomp_ser -lxlfmath
-----------------------------------------

