s.subSiesta: Submission time = 36s59m17h
s.subSiesta: Job name = qp64_s64_n64_c16_vesta
s.subSiesta: Number of nodes = 64
s.subSiesta: Number of cores = 1024
s.subSiesta: Number of cores/node = 16
s.subSiesta: Number of slices = 64
s.subSiesta: Mapping = ABCDET
36s59m17h
#QETSc options
-ioptbin 7
-ioptdensity 0
-ioptinertia 1
-ioptleft 2
-ioptwrite 1 
#-roptbuffer 0.01
#-roptdiff 0.02

#PETSc options
-mat_type mpisbaij
-log_view
#-mat_view
#-memory_view
#-mat_mumps_icntl_13 1 #turn off scaLAPACK for matrix inertia
#-mat_mumps_icntl_24 1 #null pivot row detection for matrix inertia
-mat_mumps_icntl_23 0
#-mat_mumps_icntl_28 1 # serial analysis
#-mat_mumps_icntl_28 2 #parallel analysis
#-mat_mumps_icntl_29 1 #ptscotch
#-mat_mumps_icntl_29 2 #parmetis
-mat_mumps_icntl_7 5 #metis
#-malloc_info 
#-mat_view ::ascii_info 
#-mat_getrow_uppertriangular 1
#-st_type sinvert 
#-st_ksp_type preonly 
#-st_pc_type cholesky 
#-st_pc_factor_mat_solver_package mumps 

#SLEPc options

#-eps_krylovschur_partitions 1  
-eps_interval -2.3,0.
#-eps_tol  1.e-8
-eps_krylovschur_detect_zeros 0
#-eps_purify 1
SystemName          polyethylene
SystemLabel         polyethylene
NumberOfAtoms       6
NumberOfSpecies     2

%block ChemicalSpeciesLabel
 1  6  C
 2  1  H
%endblock ChemicalSpeciesLabel

DM.MixingWeight 0.3
DM.NumberPulay 3
#BlockSize 23
SolutionMethod  qetsc
WriteDM .false.
WriteDM.NetCDF .false.
WriteDMHS.NetCDF .false.
LongOutput .false.
#MaxSCFIterations 1

PAO.BasisType split
PAO.BasisSize DZP

LatticeConstant 1.00 Ang
%block LatticeVectors
20.000  0.000  0.000
 0.000 20.000  0.000
 0.000  0.000  2.572
%endblock LatticeVectors

%block kgrid_Monkhorst_Pack
1 0 0 0.0
0 1 0 0.0
0 0 1 0.0
%endblock kgrid_Monkhorst_Pack

%block SuperCell
1 0 0
0 1 0
0 0 64
%endblock SuperCell

AtomicCoordinatesFormat Ang
%block AtomicCoordinatesAndAtomicSpecies
  0.31237500000000001       0.28138740000000001       0.64300000000000002     1
   1.3964999999999999        7.3970400000000006E-002  0.64300000000000002     2
  0.21462000000000001        1.3794480000000002       0.64300000000000002     2
 -0.31237500000000001      -0.28138740000000001      -0.64300000000000002     1
  -1.3964999999999999       -7.3970400000000006E-002 -0.64300000000000002     2
 -0.21462000000000001       -1.3794480000000002      -0.64300000000000002     2
%endblock AtomicCoordinatesAndAtomicSpecies
Siesta Version: siesta-trunk-492
Architecture  : powerpc64-unknown-linux-gnu--Xlf
Compiler flags: mpixlf90_r -I/home/keceli/scratch2/petsc/include -I/home/keceli/scratch2/petssc/arch-xl/include -I/bgsys/drivers/V1R2M4/ppc64/comm/include -I/bgsys/drivers/V1R2M4/ppc64/comm/lib/xl -I/bgsys/drivers/V1R2M4/ppc64 -I/bgsys/drivers/V1R2M4/ppc64/comm/sys/include -I/bgsys/drivers/V1R2M4/ppc64/spi/include -I/bgsys/drivers/V1R2M4/ppc64/spi/include/kernel/cnk -I/home/keceli/scratch2/slepcfork/include -I/home/keceli/scratch2/slepcfork/arch-xl/include
PP flags      : -WF,-DMPI -WF,-DFC_HAVE_ABORT -WF,-DBSC_CELLXC -WF,-DMPI_TIMING 
PARALLEL version

* Running on 1024 nodes in parallel
>> Start of run:  11-JAN-2017  18:00:47

                           ***********************       
                           *  WELCOME TO SIESTA  *       
                           ***********************       
WARNING: Siesta is reading its input from file INPUT_DEBUG

reinit: -----------------------------------------------------------------------
reinit: System Name: polyethylene
reinit: -----------------------------------------------------------------------
reinit: System Label: polyethylene                                                
reinit: -----------------------------------------------------------------------

initatom: Reading input for the pseudopotentials and atomic orbitals ----------
Species number:   1 Atomic number:    6 Label: C
Species number:   2 Atomic number:    1 Label: H
 
Ground state valence configuration:   2s02  2p02
Reading pseudopotential information in formatted form from C.psf

Valence configuration for pseudopotential generation:
2s( 2.00) rc: 1.54
2p( 2.00) rc: 1.54
3d( 0.00) rc: 1.54
4f( 0.00) rc: 1.54
Ground state valence configuration:   1s01
Reading pseudopotential information in formatted form from H.psf

Valence configuration for pseudopotential generation:
1s( 1.00) rc: 1.31
2p( 0.00) rc: 1.31
3d( 0.00) rc: 0.37
4f( 0.00) rc: 1.31
For C, standard SIESTA heuristics set lmxkb to 3
 (one more than the basis l, including polarization orbitals).
Use PS.lmax or PS.KBprojectors blocks to override.
For H, standard SIESTA heuristics set lmxkb to 2
 (one more than the basis l, including polarization orbitals).
Use PS.lmax or PS.KBprojectors blocks to override.

<basis_specs>
===============================================================================
C                    Z=   6    Mass=  12.010        Charge= 0.17977+309
Lmxo=1 Lmxkb= 3    BasisType=split      Semic=F
L=0  Nsemic=0  Cnfigmx=2
          n=1  nzeta=2  polorb=0
            splnorm:   0.15000    
               vcte:    0.0000    
               rinn:    0.0000    
               qcoe:    0.0000    
               qyuk:    0.0000    
               qwid:   0.10000E-01
                rcs:    0.0000      0.0000    
            lambdas:    1.0000      1.0000    
L=1  Nsemic=0  Cnfigmx=2
          n=1  nzeta=2  polorb=1
            splnorm:   0.15000    
               vcte:    0.0000    
               rinn:    0.0000    
               qcoe:    0.0000    
               qyuk:    0.0000    
               qwid:   0.10000E-01
                rcs:    0.0000      0.0000    
            lambdas:    1.0000      1.0000    
-------------------------------------------------------------------------------
L=0  Nkbl=1  erefs: 0.17977+309
L=1  Nkbl=1  erefs: 0.17977+309
L=2  Nkbl=1  erefs: 0.17977+309
L=3  Nkbl=1  erefs: 0.17977+309
===============================================================================
</basis_specs>

atom: Called for C                     (Z =   6)

read_vps: Pseudopotential generation method:
read_vps: ATM3      Troullier-Martins                       
Total valence charge:    4.00000

xc_check: Exchange-correlation functional:
xc_check: Ceperley-Alder
V l=0 = -2*Zval/r beyond r=  1.5227
V l=1 = -2*Zval/r beyond r=  1.5227
V l=2 = -2*Zval/r beyond r=  1.5227
V l=3 = -2*Zval/r beyond r=  1.5038
All V_l potentials equal beyond r=  1.5227
This should be close to max(r_c) in ps generation
All pots = -2*Zval/r beyond r=  1.5227

VLOCAL1: 99.0% of the norm of Vloc inside     18.722 Ry
VLOCAL1: 99.9% of the norm of Vloc inside     42.668 Ry
atom: Maximum radius for 4*pi*r*r*local-pseudopot. charge    1.83678
atom: Maximum radius for r*vlocal+2*Zval:    1.58088
GHOST: No ghost state for L =  0
GHOST: No ghost state for L =  1
GHOST: No ghost state for L =  2
GHOST: No ghost state for L =  3

KBgen: Kleinman-Bylander projectors: 
   l= 0   rc=  1.747182   el= -1.001948   Ekb=  4.950286   kbcos=  0.319819
   l= 1   rc=  1.747182   el= -0.398598   Ekb= -4.108613   kbcos= -0.367053
   l= 2   rc=  1.930978   el=  0.002326   Ekb= -1.042946   kbcos= -0.009366
   l= 3   rc=  2.055542   el=  0.003420   Ekb= -0.408633   kbcos= -0.001262

KBgen: Total number of  Kleinman-Bylander projectors:   16
atom: -------------------------------------------------------------------------

atom: SANKEY-TYPE ORBITALS:
atom: Selected multiple-zeta basis: split     

SPLIT: Orbitals with angular momentum L= 0

SPLIT: Basis orbitals for state 2s

SPLIT: PAO cut-off radius determined from an
SPLIT: energy shift=  0.020000 Ry

   izeta = 1
                 lambda =    1.000000
                     rc =    4.191849
                 energy =   -0.983897
                kinetic =    0.880927
    potential(screened) =   -1.864824
       potential(ionic) =   -5.475687

   izeta = 2
                 rmatch =    3.431921
              splitnorm =    0.150000
                 energy =   -0.853083
                kinetic =    1.298222
    potential(screened) =   -2.151305
       potential(ionic) =   -5.995890

SPLIT: Orbitals with angular momentum L= 1

SPLIT: Basis orbitals for state 2p

SPLIT: PAO cut-off radius determined from an
SPLIT: energy shift=  0.020000 Ry

   izeta = 1
                 lambda =    1.000000
                     rc =    4.870301
                 energy =   -0.379093
                kinetic =    2.540023
    potential(screened) =   -2.919116
       potential(ionic) =   -6.427960

   izeta = 2
                 rmatch =    3.475094
              splitnorm =    0.150000
                 energy =   -0.215057
                kinetic =    3.814571
    potential(screened) =   -4.029628
       potential(ionic) =   -7.920250

POLgen: Perturbative polarization orbital with L=  2

POLgen: Polarization orbital for state 2p

   izeta = 1
                     rc =    4.870301
                 energy =    1.280996
                kinetic =    2.631310
    potential(screened) =   -1.350314
       potential(ionic) =   -4.295640
atom: Total number of Sankey-type orbitals: 13

atm_pop: Valence configuration (for local Pseudopot. screening):
 2s( 2.00)                                                            
 2p( 2.00)                                                            
Vna: chval, zval:    4.00000   4.00000

Vna:  Cut-off radius for the neutral-atom potential:   4.870301

atom: _________________________________________________________________________

<basis_specs>
===============================================================================
H                    Z=   1    Mass=  1.0100        Charge= 0.17977+309
Lmxo=0 Lmxkb= 2    BasisType=split      Semic=F
L=0  Nsemic=0  Cnfigmx=1
          n=1  nzeta=2  polorb=1
            splnorm:   0.15000    
               vcte:    0.0000    
               rinn:    0.0000    
               qcoe:    0.0000    
               qyuk:    0.0000    
               qwid:   0.10000E-01
                rcs:    0.0000      0.0000    
            lambdas:    1.0000      1.0000    
-------------------------------------------------------------------------------
L=0  Nkbl=1  erefs: 0.17977+309
L=1  Nkbl=1  erefs: 0.17977+309
L=2  Nkbl=1  erefs: 0.17977+309
===============================================================================
</basis_specs>

atom: Called for H                     (Z =   1)

read_vps: Pseudopotential generation method:
read_vps: ATM3      Troullier-Martins                       
Total valence charge:    1.00000

xc_check: Exchange-correlation functional:
xc_check: Ceperley-Alder
V l=0 = -2*Zval/r beyond r=  1.2977
V l=1 = -2*Zval/r beyond r=  1.2815
V l=2 = -2*Zval/r beyond r=  1.1307
All V_l potentials equal beyond r=  1.2977
This should be close to max(r_c) in ps generation
All pots = -2*Zval/r beyond r=  1.2977

VLOCAL1: 99.0% of the norm of Vloc inside     25.776 Ry
VLOCAL1: 99.9% of the norm of Vloc inside     58.745 Ry
atom: Maximum radius for 4*pi*r*r*local-pseudopot. charge    1.52711
atom: Maximum radius for r*vlocal+2*Zval:    1.28155
GHOST: No ghost state for L =  0
GHOST: No ghost state for L =  1
GHOST: No ghost state for L =  2

KBgen: Kleinman-Bylander projectors: 
   l= 0   rc=  1.434438   el= -0.467325   Ekb= -1.940326   kbcos= -0.353040
   l= 1   rc=  1.508111   el=  0.001430   Ekb= -0.480826   kbcos= -0.024144
   l= 2   rc=  1.527112   el=  0.002365   Ekb= -0.479392   kbcos= -0.001656

KBgen: Total number of  Kleinman-Bylander projectors:    9
atom: -------------------------------------------------------------------------

atom: SANKEY-TYPE ORBITALS:
atom: Selected multiple-zeta basis: split     

SPLIT: Orbitals with angular momentum L= 0

SPLIT: Basis orbitals for state 1s

SPLIT: PAO cut-off radius determined from an
SPLIT: energy shift=  0.020000 Ry

   izeta = 1
                 lambda =    1.000000
                     rc =    4.828263
                 energy =   -0.449375
                kinetic =    0.925762
    potential(screened) =   -1.375137
       potential(ionic) =   -1.911235

   izeta = 2
                 rmatch =    3.854947
              splitnorm =    0.150000
                 energy =   -0.336149
                kinetic =    1.498089
    potential(screened) =   -1.834238
       potential(ionic) =   -2.406110

POLgen: Perturbative polarization orbital with L=  1

POLgen: Polarization orbital for state 1s

   izeta = 1
                     rc =    4.828263
                 energy =    0.707053
                kinetic =    1.398668
    potential(screened) =   -0.691614
       potential(ionic) =   -1.171973
atom: Total number of Sankey-type orbitals:  5

atm_pop: Valence configuration (for local Pseudopot. screening):
 1s( 1.00)                                                            
Vna: chval, zval:    1.00000   1.00000

Vna:  Cut-off radius for the neutral-atom potential:   4.828263

atom: _________________________________________________________________________

prinput: Basis input ----------------------------------------------------------

PAO.BasisType split     

%block ChemicalSpeciesLabel
    1    6 C                       # Species index, atomic number, species label
    2    1 H                       # Species index, atomic number, species label
%endblock ChemicalSpeciesLabel

%block PAO.Basis                 # Define Basis set
C                     2                    # Species label, number of l-shells
 n=2   0   2                         # n, l, Nzeta 
   4.192      3.432   
   1.000      1.000   
 n=2   1   2 P   1                   # n, l, Nzeta, Polarization, NzetaPol
   4.870      3.475   
   1.000      1.000   
H                     1                    # Species label, number of l-shells
 n=1   0   2 P   1                   # n, l, Nzeta, Polarization, NzetaPol
   4.828      3.855   
   1.000      1.000   
%endblock PAO.Basis

prinput: ----------------------------------------------------------------------

coor:   Atomic-coordinates input format  =     Cartesian coordinates
coor:                                          (in Angstroms)

siesta: Atomic coordinates (Bohr) and species
siesta:      0.59030   0.53175   1.21509  1        1
siesta:      2.63900   0.13978   1.21509  2        2
siesta:      0.40557   2.60678   1.21509  2        3
siesta:     -0.59030  -0.53175  -1.21509  1        4
siesta:     -2.63900  -0.13978  -1.21509  2        5
siesta:     -0.40557  -2.60678  -1.21509  2        6
siesta:      0.59030   0.53175   6.07547  1        7
siesta:      2.63900   0.13978   6.07547  2        8
siesta:      0.40557   2.60678   6.07547  2        9
siesta:     -0.59030  -0.53175   3.64528  1       10
siesta:     -2.63900  -0.13978   3.64528  2       11
siesta:     -0.40557  -2.60678   3.64528  2       12
siesta:      0.59030   0.53175  10.93585  1       13
siesta:      2.63900   0.13978  10.93585  2       14
siesta:      0.40557   2.60678  10.93585  2       15
siesta:     -0.59030  -0.53175   8.50566  1       16
siesta:     -2.63900  -0.13978   8.50566  2       17
siesta:     -0.40557  -2.60678   8.50566  2       18
siesta:      0.59030   0.53175  15.79623  1       19
siesta:      2.63900   0.13978  15.79623  2       20
siesta:      0.40557   2.60678  15.79623  2       21
siesta:     -0.59030  -0.53175  13.36604  1       22
siesta:     -2.63900  -0.13978  13.36604  2       23
siesta:     -0.40557  -2.60678  13.36604  2       24
siesta:      0.59030   0.53175  20.65660  1       25
siesta:      2.63900   0.13978  20.65660  2       26
siesta:      0.40557   2.60678  20.65660  2       27
siesta:     -0.59030  -0.53175  18.22642  1       28
siesta:     -2.63900  -0.13978  18.22642  2       29
siesta:     -0.40557  -2.60678  18.22642  2       30
siesta:      0.59030   0.53175  25.51698  1       31
siesta:      2.63900   0.13978  25.51698  2       32
siesta:      0.40557   2.60678  25.51698  2       33
siesta:     -0.59030  -0.53175  23.08679  1       34
siesta:     -2.63900  -0.13978  23.08679  2       35
siesta:     -0.40557  -2.60678  23.08679  2       36
siesta:      0.59030   0.53175  30.37736  1       37
siesta:      2.63900   0.13978  30.37736  2       38
siesta:      0.40557   2.60678  30.37736  2       39
siesta:     -0.59030  -0.53175  27.94717  1       40
siesta:     -2.63900  -0.13978  27.94717  2       41
siesta:     -0.40557  -2.60678  27.94717  2       42
siesta:      0.59030   0.53175  35.23774  1       43
siesta:      2.63900   0.13978  35.23774  2       44
siesta:      0.40557   2.60678  35.23774  2       45
siesta:     -0.59030  -0.53175  32.80755  1       46
siesta:     -2.63900  -0.13978  32.80755  2       47
siesta:     -0.40557  -2.60678  32.80755  2       48
siesta:      0.59030   0.53175  40.09811  1       49
siesta:      2.63900   0.13978  40.09811  2       50
siesta:      0.40557   2.60678  40.09811  2       51
siesta:     -0.59030  -0.53175  37.66793  1       52
siesta:     -2.63900  -0.13978  37.66793  2       53
siesta:     -0.40557  -2.60678  37.66793  2       54
siesta:      0.59030   0.53175  44.95849  1       55
siesta:      2.63900   0.13978  44.95849  2       56
siesta:      0.40557   2.60678  44.95849  2       57
siesta:     -0.59030  -0.53175  42.52830  1       58
siesta:     -2.63900  -0.13978  42.52830  2       59
siesta:     -0.40557  -2.60678  42.52830  2       60
siesta:      0.59030   0.53175  49.81887  1       61
siesta:      2.63900   0.13978  49.81887  2       62
siesta:      0.40557   2.60678  49.81887  2       63
siesta:     -0.59030  -0.53175  47.38868  1       64
siesta:     -2.63900  -0.13978  47.38868  2       65
siesta:     -0.40557  -2.60678  47.38868  2       66
siesta:      0.59030   0.53175  54.67925  1       67
siesta:      2.63900   0.13978  54.67925  2       68
siesta:      0.40557   2.60678  54.67925  2       69
siesta:     -0.59030  -0.53175  52.24906  1       70
siesta:     -2.63900  -0.13978  52.24906  2       71
siesta:     -0.40557  -2.60678  52.24906  2       72
siesta:      0.59030   0.53175  59.53962  1       73
siesta:      2.63900   0.13978  59.53962  2       74
siesta:      0.40557   2.60678  59.53962  2       75
siesta:     -0.59030  -0.53175  57.10944  1       76
siesta:     -2.63900  -0.13978  57.10944  2       77
siesta:     -0.40557  -2.60678  57.10944  2       78
siesta:      0.59030   0.53175  64.40000  1       79
siesta:      2.63900   0.13978  64.40000  2       80
siesta:      0.40557   2.60678  64.40000  2       81
siesta:     -0.59030  -0.53175  61.96981  1       82
siesta:     -2.63900  -0.13978  61.96981  2       83
siesta:     -0.40557  -2.60678  61.96981  2       84
siesta:      0.59030   0.53175  69.26038  1       85
siesta:      2.63900   0.13978  69.26038  2       86
siesta:      0.40557   2.60678  69.26038  2       87
siesta:     -0.59030  -0.53175  66.83019  1       88
siesta:     -2.63900  -0.13978  66.83019  2       89
siesta:     -0.40557  -2.60678  66.83019  2       90
siesta:      0.59030   0.53175  74.12076  1       91
siesta:      2.63900   0.13978  74.12076  2       92
siesta:      0.40557   2.60678  74.12076  2       93
siesta:     -0.59030  -0.53175  71.69057  1       94
siesta:     -2.63900  -0.13978  71.69057  2       95
siesta:     -0.40557  -2.60678  71.69057  2       96
siesta:      0.59030   0.53175  78.98113  1       97
siesta:      2.63900   0.13978  78.98113  2       98
siesta:      0.40557   2.60678  78.98113  2       99
siesta:     -0.59030  -0.53175  76.55095  1      100
siesta:     -2.63900  -0.13978  76.55095  2      101
siesta:     -0.40557  -2.60678  76.55095  2      102
siesta:      0.59030   0.53175  83.84151  1      103
siesta:      2.63900   0.13978  83.84151  2      104
siesta:      0.40557   2.60678  83.84151  2      105
siesta:     -0.59030  -0.53175  81.41132  1      106
siesta:     -2.63900  -0.13978  81.41132  2      107
siesta:     -0.40557  -2.60678  81.41132  2      108
siesta:      0.59030   0.53175  88.70189  1      109
siesta:      2.63900   0.13978  88.70189  2      110
siesta:      0.40557   2.60678  88.70189  2      111
siesta:     -0.59030  -0.53175  86.27170  1      112
siesta:     -2.63900  -0.13978  86.27170  2      113
siesta:     -0.40557  -2.60678  86.27170  2      114
siesta:      0.59030   0.53175  93.56227  1      115
siesta:      2.63900   0.13978  93.56227  2      116
siesta:      0.40557   2.60678  93.56227  2      117
siesta:     -0.59030  -0.53175  91.13208  1      118
siesta:     -2.63900  -0.13978  91.13208  2      119
siesta:     -0.40557  -2.60678  91.13208  2      120
siesta:      0.59030   0.53175  98.42264  1      121
siesta:      2.63900   0.13978  98.42264  2      122
siesta:      0.40557   2.60678  98.42264  2      123
siesta:     -0.59030  -0.53175  95.99246  1      124
siesta:     -2.63900  -0.13978  95.99246  2      125
siesta:     -0.40557  -2.60678  95.99246  2      126
siesta:      0.59030   0.53175 103.28302  1      127
siesta:      2.63900   0.13978 103.28302  2      128
siesta:      0.40557   2.60678 103.28302  2      129
siesta:     -0.59030  -0.53175 100.85283  1      130
siesta:     -2.63900  -0.13978 100.85283  2      131
siesta:     -0.40557  -2.60678 100.85283  2      132
siesta:      0.59030   0.53175 108.14340  1      133
siesta:      2.63900   0.13978 108.14340  2      134
siesta:      0.40557   2.60678 108.14340  2      135
siesta:     -0.59030  -0.53175 105.71321  1      136
siesta:     -2.63900  -0.13978 105.71321  2      137
siesta:     -0.40557  -2.60678 105.71321  2      138
siesta:      0.59030   0.53175 113.00378  1      139
siesta:      2.63900   0.13978 113.00378  2      140
siesta:      0.40557   2.60678 113.00378  2      141
siesta:     -0.59030  -0.53175 110.57359  1      142
siesta:     -2.63900  -0.13978 110.57359  2      143
siesta:     -0.40557  -2.60678 110.57359  2      144
siesta:      0.59030   0.53175 117.86416  1      145
siesta:      2.63900   0.13978 117.86416  2      146
siesta:      0.40557   2.60678 117.86416  2      147
siesta:     -0.59030  -0.53175 115.43397  1      148
siesta:     -2.63900  -0.13978 115.43397  2      149
siesta:     -0.40557  -2.60678 115.43397  2      150
siesta:      0.59030   0.53175 122.72453  1      151
siesta:      2.63900   0.13978 122.72453  2      152
siesta:      0.40557   2.60678 122.72453  2      153
siesta:     -0.59030  -0.53175 120.29434  1      154
siesta:     -2.63900  -0.13978 120.29434  2      155
siesta:     -0.40557  -2.60678 120.29434  2      156
siesta:      0.59030   0.53175 127.58491  1      157
siesta:      2.63900   0.13978 127.58491  2      158
siesta:      0.40557   2.60678 127.58491  2      159
siesta:     -0.59030  -0.53175 125.15472  1      160
siesta:     -2.63900  -0.13978 125.15472  2      161
siesta:     -0.40557  -2.60678 125.15472  2      162
siesta:      0.59030   0.53175 132.44529  1      163
siesta:      2.63900   0.13978 132.44529  2      164
siesta:      0.40557   2.60678 132.44529  2      165
siesta:     -0.59030  -0.53175 130.01510  1      166
siesta:     -2.63900  -0.13978 130.01510  2      167
siesta:     -0.40557  -2.60678 130.01510  2      168
siesta:      0.59030   0.53175 137.30567  1      169
siesta:      2.63900   0.13978 137.30567  2      170
siesta:      0.40557   2.60678 137.30567  2      171
siesta:     -0.59030  -0.53175 134.87548  1      172
siesta:     -2.63900  -0.13978 134.87548  2      173
siesta:     -0.40557  -2.60678 134.87548  2      174
siesta:      0.59030   0.53175 142.16604  1      175
siesta:      2.63900   0.13978 142.16604  2      176
siesta:      0.40557   2.60678 142.16604  2      177
siesta:     -0.59030  -0.53175 139.73585  1      178
siesta:     -2.63900  -0.13978 139.73585  2      179
siesta:     -0.40557  -2.60678 139.73585  2      180
siesta:      0.59030   0.53175 147.02642  1      181
siesta:      2.63900   0.13978 147.02642  2      182
siesta:      0.40557   2.60678 147.02642  2      183
siesta:     -0.59030  -0.53175 144.59623  1      184
siesta:     -2.63900  -0.13978 144.59623  2      185
siesta:     -0.40557  -2.60678 144.59623  2      186
siesta:      0.59030   0.53175 151.88680  1      187
siesta:      2.63900   0.13978 151.88680  2      188
siesta:      0.40557   2.60678 151.88680  2      189
siesta:     -0.59030  -0.53175 149.45661  1      190
siesta:     -2.63900  -0.13978 149.45661  2      191
siesta:     -0.40557  -2.60678 149.45661  2      192
siesta:      0.59030   0.53175 156.74718  1      193
siesta:      2.63900   0.13978 156.74718  2      194
siesta:      0.40557   2.60678 156.74718  2      195
siesta:     -0.59030  -0.53175 154.31699  1      196
siesta:     -2.63900  -0.13978 154.31699  2      197
siesta:     -0.40557  -2.60678 154.31699  2      198
siesta:      0.59030   0.53175 161.60755  1      199
siesta:      2.63900   0.13978 161.60755  2      200
siesta:      0.40557   2.60678 161.60755  2      201
siesta:     -0.59030  -0.53175 159.17736  1      202
siesta:     -2.63900  -0.13978 159.17736  2      203
siesta:     -0.40557  -2.60678 159.17736  2      204
siesta:      0.59030   0.53175 166.46793  1      205
siesta:      2.63900   0.13978 166.46793  2      206
siesta:      0.40557   2.60678 166.46793  2      207
siesta:     -0.59030  -0.53175 164.03774  1      208
siesta:     -2.63900  -0.13978 164.03774  2      209
siesta:     -0.40557  -2.60678 164.03774  2      210
siesta:      0.59030   0.53175 171.32831  1      211
siesta:      2.63900   0.13978 171.32831  2      212
siesta:      0.40557   2.60678 171.32831  2      213
siesta:     -0.59030  -0.53175 168.89812  1      214
siesta:     -2.63900  -0.13978 168.89812  2      215
siesta:     -0.40557  -2.60678 168.89812  2      216
siesta:      0.59030   0.53175 176.18869  1      217
siesta:      2.63900   0.13978 176.18869  2      218
siesta:      0.40557   2.60678 176.18869  2      219
siesta:     -0.59030  -0.53175 173.75850  1      220
siesta:     -2.63900  -0.13978 173.75850  2      221
siesta:     -0.40557  -2.60678 173.75850  2      222
siesta:      0.59030   0.53175 181.04906  1      223
siesta:      2.63900   0.13978 181.04906  2      224
siesta:      0.40557   2.60678 181.04906  2      225
siesta:     -0.59030  -0.53175 178.61887  1      226
siesta:     -2.63900  -0.13978 178.61887  2      227
siesta:     -0.40557  -2.60678 178.61887  2      228
siesta:      0.59030   0.53175 185.90944  1      229
siesta:      2.63900   0.13978 185.90944  2      230
siesta:      0.40557   2.60678 185.90944  2      231
siesta:     -0.59030  -0.53175 183.47925  1      232
siesta:     -2.63900  -0.13978 183.47925  2      233
siesta:     -0.40557  -2.60678 183.47925  2      234
siesta:      0.59030   0.53175 190.76982  1      235
siesta:      2.63900   0.13978 190.76982  2      236
siesta:      0.40557   2.60678 190.76982  2      237
siesta:     -0.59030  -0.53175 188.33963  1      238
siesta:     -2.63900  -0.13978 188.33963  2      239
siesta:     -0.40557  -2.60678 188.33963  2      240
siesta:      0.59030   0.53175 195.63020  1      241
siesta:      2.63900   0.13978 195.63020  2      242
siesta:      0.40557   2.60678 195.63020  2      243
siesta:     -0.59030  -0.53175 193.20001  1      244
siesta:     -2.63900  -0.13978 193.20001  2      245
siesta:     -0.40557  -2.60678 193.20001  2      246
siesta:      0.59030   0.53175 200.49057  1      247
siesta:      2.63900   0.13978 200.49057  2      248
siesta:      0.40557   2.60678 200.49057  2      249
siesta:     -0.59030  -0.53175 198.06038  1      250
siesta:     -2.63900  -0.13978 198.06038  2      251
siesta:     -0.40557  -2.60678 198.06038  2      252
siesta:      0.59030   0.53175 205.35095  1      253
siesta:      2.63900   0.13978 205.35095  2      254
siesta:      0.40557   2.60678 205.35095  2      255
siesta:     -0.59030  -0.53175 202.92076  1      256
siesta:     -2.63900  -0.13978 202.92076  2      257
siesta:     -0.40557  -2.60678 202.92076  2      258
siesta:      0.59030   0.53175 210.21133  1      259
siesta:      2.63900   0.13978 210.21133  2      260
siesta:      0.40557   2.60678 210.21133  2      261
siesta:     -0.59030  -0.53175 207.78114  1      262
siesta:     -2.63900  -0.13978 207.78114  2      263
siesta:     -0.40557  -2.60678 207.78114  2      264
siesta:      0.59030   0.53175 215.07171  1      265
siesta:      2.63900   0.13978 215.07171  2      266
siesta:      0.40557   2.60678 215.07171  2      267
siesta:     -0.59030  -0.53175 212.64152  1      268
siesta:     -2.63900  -0.13978 212.64152  2      269
siesta:     -0.40557  -2.60678 212.64152  2      270
siesta:      0.59030   0.53175 219.93208  1      271
siesta:      2.63900   0.13978 219.93208  2      272
siesta:      0.40557   2.60678 219.93208  2      273
siesta:     -0.59030  -0.53175 217.50189  1      274
siesta:     -2.63900  -0.13978 217.50189  2      275
siesta:     -0.40557  -2.60678 217.50189  2      276
siesta:      0.59030   0.53175 224.79246  1      277
siesta:      2.63900   0.13978 224.79246  2      278
siesta:      0.40557   2.60678 224.79246  2      279
siesta:     -0.59030  -0.53175 222.36227  1      280
siesta:     -2.63900  -0.13978 222.36227  2      281
siesta:     -0.40557  -2.60678 222.36227  2      282
siesta:      0.59030   0.53175 229.65284  1      283
siesta:      2.63900   0.13978 229.65284  2      284
siesta:      0.40557   2.60678 229.65284  2      285
siesta:     -0.59030  -0.53175 227.22265  1      286
siesta:     -2.63900  -0.13978 227.22265  2      287
siesta:     -0.40557  -2.60678 227.22265  2      288
siesta:      0.59030   0.53175 234.51322  1      289
siesta:      2.63900   0.13978 234.51322  2      290
siesta:      0.40557   2.60678 234.51322  2      291
siesta:     -0.59030  -0.53175 232.08303  1      292
siesta:     -2.63900  -0.13978 232.08303  2      293
siesta:     -0.40557  -2.60678 232.08303  2      294
siesta:      0.59030   0.53175 239.37359  1      295
siesta:      2.63900   0.13978 239.37359  2      296
siesta:      0.40557   2.60678 239.37359  2      297
siesta:     -0.59030  -0.53175 236.94340  1      298
siesta:     -2.63900  -0.13978 236.94340  2      299
siesta:     -0.40557  -2.60678 236.94340  2      300
siesta:      0.59030   0.53175 244.23397  1      301
siesta:      2.63900   0.13978 244.23397  2      302
siesta:      0.40557   2.60678 244.23397  2      303
siesta:     -0.59030  -0.53175 241.80378  1      304
siesta:     -2.63900  -0.13978 241.80378  2      305
siesta:     -0.40557  -2.60678 241.80378  2      306
siesta:      0.59030   0.53175 249.09435  1      307
siesta:      2.63900   0.13978 249.09435  2      308
siesta:      0.40557   2.60678 249.09435  2      309
siesta:     -0.59030  -0.53175 246.66416  1      310
siesta:     -2.63900  -0.13978 246.66416  2      311
siesta:     -0.40557  -2.60678 246.66416  2      312
siesta:      0.59030   0.53175 253.95473  1      313
siesta:      2.63900   0.13978 253.95473  2      314
siesta:      0.40557   2.60678 253.95473  2      315
siesta:     -0.59030  -0.53175 251.52454  1      316
siesta:     -2.63900  -0.13978 251.52454  2      317
siesta:     -0.40557  -2.60678 251.52454  2      318
siesta:      0.59030   0.53175 258.81510  1      319
siesta:      2.63900   0.13978 258.81510  2      320
siesta:      0.40557   2.60678 258.81510  2      321
siesta:     -0.59030  -0.53175 256.38491  1      322
siesta:     -2.63900  -0.13978 256.38491  2      323
siesta:     -0.40557  -2.60678 256.38491  2      324
siesta:      0.59030   0.53175 263.67548  1      325
siesta:      2.63900   0.13978 263.67548  2      326
siesta:      0.40557   2.60678 263.67548  2      327
siesta:     -0.59030  -0.53175 261.24529  1      328
siesta:     -2.63900  -0.13978 261.24529  2      329
siesta:     -0.40557  -2.60678 261.24529  2      330
siesta:      0.59030   0.53175 268.53586  1      331
siesta:      2.63900   0.13978 268.53586  2      332
siesta:      0.40557   2.60678 268.53586  2      333
siesta:     -0.59030  -0.53175 266.10567  1      334
siesta:     -2.63900  -0.13978 266.10567  2      335
siesta:     -0.40557  -2.60678 266.10567  2      336
siesta:      0.59030   0.53175 273.39624  1      337
siesta:      2.63900   0.13978 273.39624  2      338
siesta:      0.40557   2.60678 273.39624  2      339
siesta:     -0.59030  -0.53175 270.96605  1      340
siesta:     -2.63900  -0.13978 270.96605  2      341
siesta:     -0.40557  -2.60678 270.96605  2      342
siesta:      0.59030   0.53175 278.25661  1      343
siesta:      2.63900   0.13978 278.25661  2      344
siesta:      0.40557   2.60678 278.25661  2      345
siesta:     -0.59030  -0.53175 275.82642  1      346
siesta:     -2.63900  -0.13978 275.82642  2      347
siesta:     -0.40557  -2.60678 275.82642  2      348
siesta:      0.59030   0.53175 283.11699  1      349
siesta:      2.63900   0.13978 283.11699  2      350
siesta:      0.40557   2.60678 283.11699  2      351
siesta:     -0.59030  -0.53175 280.68680  1      352
siesta:     -2.63900  -0.13978 280.68680  2      353
siesta:     -0.40557  -2.60678 280.68680  2      354
siesta:      0.59030   0.53175 287.97737  1      355
siesta:      2.63900   0.13978 287.97737  2      356
siesta:      0.40557   2.60678 287.97737  2      357
siesta:     -0.59030  -0.53175 285.54718  1      358
siesta:     -2.63900  -0.13978 285.54718  2      359
siesta:     -0.40557  -2.60678 285.54718  2      360
siesta:      0.59030   0.53175 292.83775  1      361
siesta:      2.63900   0.13978 292.83775  2      362
siesta:      0.40557   2.60678 292.83775  2      363
siesta:     -0.59030  -0.53175 290.40756  1      364
siesta:     -2.63900  -0.13978 290.40756  2      365
siesta:     -0.40557  -2.60678 290.40756  2      366
siesta:      0.59030   0.53175 297.69812  1      367
siesta:      2.63900   0.13978 297.69812  2      368
siesta:      0.40557   2.60678 297.69812  2      369
siesta:     -0.59030  -0.53175 295.26793  1      370
siesta:     -2.63900  -0.13978 295.26793  2      371
siesta:     -0.40557  -2.60678 295.26793  2      372
siesta:      0.59030   0.53175 302.55850  1      373
siesta:      2.63900   0.13978 302.55850  2      374
siesta:      0.40557   2.60678 302.55850  2      375
siesta:     -0.59030  -0.53175 300.12831  1      376
siesta:     -2.63900  -0.13978 300.12831  2      377
siesta:     -0.40557  -2.60678 300.12831  2      378
siesta:      0.59030   0.53175 307.41888  1      379
siesta:      2.63900   0.13978 307.41888  2      380
siesta:      0.40557   2.60678 307.41888  2      381
siesta:     -0.59030  -0.53175 304.98869  1      382
siesta:     -2.63900  -0.13978 304.98869  2      383
siesta:     -0.40557  -2.60678 304.98869  2      384

siesta: System type = chain     

initatomlists: Number of atoms, orbitals, and projectors:    384  2944  4352

siesta: ******************** Simulation parameters ****************************
siesta:
siesta: The following are some of the parameters of the simulation.
siesta: A complete list of the parameters used, including default values,
siesta: can be found in file out.fdf
siesta:
redata: Non-Collinear-spin run           =     F
redata: SpinPolarized (Up/Down) run      =     F
redata: Number of spin components        =     1
redata: Long output                      =     F
redata: Number of Atomic Species         =        2
redata: Charge density info will appear in .RHO file
redata: Write Mulliken Pop.              =     NO
redata: Mesh Cutoff                      =   100.0000  Ry
redata: Net charge of the system         =     0.0000 |e|
redata: Min. number of SCF Iter          =        0
redata: Max. number of SCF Iter          =       50
redata: Mix DM or H after convergence    =     F
redata: Recompute H after scf cycle      =     F
redata: Performing Pulay mixing using    =     3 iterations
redata: Mix DM in first SCF step ?       =     F
redata: Write Pulay info on disk?        =     F
redata: Discard 1st Pulay DM after  kick =     F
redata: New DM Mixing Weight             =     0.3000
redata: New DM Occupancy tolerance       = 0.000000000001
redata: No kicks to SCF
redata: DM Mixing Weight for Kicks       =     0.5000
redata: DM Tolerance for SCF             =     0.000100
redata: Require (free) Energy convergence in SCF =     F
redata: DM (free)Energy tolerance for SCF =     0.000010 eV
redata: Require Harris convergence for SCF =     F
redata: DM Harris energy tolerance for SCF =     0.000010 eV
redata: Using Saved Data (generic)   =     F
redata: Use continuation files for DM    =     F
redata: Neglect nonoverlap interactions  =     F
redata: Method of Calculation            =     QETSc
redata: Fix the spin of the system       =     F
redata: Dynamics option                  =     Single-point calculation
redata: ***********************************************************************
Total number of electrons:   768.000000
Total ionic charge:   768.000000

* ProcessorY, Blocksize:   32   3


* Orbital distribution balance (max,min):     3     0

 Kpoints in:  1 . Kpoints trimmed:  1

siesta: k-grid: Number of k-points =     1
siesta: k-grid: Cutoff (effective) =    10.000 Ang
siesta: k-grid: Supercell and displacements
siesta: k-grid:    1   0   0      0.000
siesta: k-grid:    0   1   0      0.000
siesta: k-grid:    0   0   1      0.000

                     ====================================
                        Single-point calculation
                     ====================================

outcell: Unit cell vectors (Ang):
       20.000000    0.000000    0.000000
        0.000000   20.000000    0.000000
        0.000000    0.000000  164.608000

outcell: Cell vector modules (Ang)   :   20.000000   20.000000  164.608000
outcell: Cell angles (23,13,12) (deg):     90.0000     90.0000     90.0000
outcell: Cell volume (Ang**3)        :  65843.2000
New_DM. Step:     1
Initializing Density Matrix...
New grid distribution:   1
           1       1:   64    1:    2    1:   16
           2       1:   64    1:    2   17:   32
           3       1:   64    1:    2   33:   48
           4       1:   64    1:    2   49:   64
           5       1:   64    1:    2   65:   80
           6       1:   64    1:    2   81:   96
           7       1:   64    1:    2   97:  112
           8       1:   64    1:    2  113:  128
           9       1:   64    1:    2  129:  144
          10       1:   64    1:    2  145:  160
          11       1:   64    1:    2  161:  176
          12       1:   64    1:    2  177:  192
          13       1:   64    1:    2  193:  208
          14       1:   64    1:    2  209:  224
          15       1:   64    1:    2  225:  240
          16       1:   64    1:    2  241:  256
          17       1:   64    1:    2  257:  272
          18       1:   64    1:    2  273:  288
          19       1:   64    1:    2  289:  304
          20       1:   64    1:    2  305:  320
          21       1:   64    1:    2  321:  335
          22       1:   64    1:    2  336:  350
          23       1:   64    1:    2  351:  365
          24       1:   64    1:    2  366:  380
          25       1:   64    1:    2  381:  395
          26       1:   64    1:    2  396:  410
          27       1:   64    1:    2  411:  425
          28       1:   64    1:    2  426:  440
          29       1:   64    1:    2  441:  455
          30       1:   64    1:    2  456:  470
          31       1:   64    1:    2  471:  485
          32       1:   64    1:    2  486:  500
          33       1:   64    3:    4    1:   16
          34       1:   64    3:    4   17:   32
          35       1:   64    3:    4   33:   48
          36       1:   64    3:    4   49:   64
          37       1:   64    3:    4   65:   80
          38       1:   64    3:    4   81:   96
          39       1:   64    3:    4   97:  112
          40       1:   64    3:    4  113:  128
          41       1:   64    3:    4  129:  144
          42       1:   64    3:    4  145:  160
          43       1:   64    3:    4  161:  176
          44       1:   64    3:    4  177:  192
          45       1:   64    3:    4  193:  208
          46       1:   64    3:    4  209:  224
          47       1:   64    3:    4  225:  240
          48       1:   64    3:    4  241:  256
          49       1:   64    3:    4  257:  272
          50       1:   64    3:    4  273:  288
          51       1:   64    3:    4  289:  304
          52       1:   64    3:    4  305:  320
          53       1:   64    3:    4  321:  335
          54       1:   64    3:    4  336:  350
          55       1:   64    3:    4  351:  365
          56       1:   64    3:    4  366:  380
          57       1:   64    3:    4  381:  395
          58       1:   64    3:    4  396:  410
          59       1:   64    3:    4  411:  425
          60       1:   64    3:    4  426:  440
          61       1:   64    3:    4  441:  455
          62       1:   64    3:    4  456:  470
          63       1:   64    3:    4  471:  485
          64       1:   64    3:    4  486:  500
          65       1:   64    5:    6    1:   16
          66       1:   64    5:    6   17:   32
          67       1:   64    5:    6   33:   48
          68       1:   64    5:    6   49:   64
          69       1:   64    5:    6   65:   80
          70       1:   64    5:    6   81:   96
          71       1:   64    5:    6   97:  112
          72       1:   64    5:    6  113:  128
          73       1:   64    5:    6  129:  144
          74       1:   64    5:    6  145:  160
          75       1:   64    5:    6  161:  176
          76       1:   64    5:    6  177:  192
          77       1:   64    5:    6  193:  208
          78       1:   64    5:    6  209:  224
          79       1:   64    5:    6  225:  240
          80       1:   64    5:    6  241:  256
          81       1:   64    5:    6  257:  272
          82       1:   64    5:    6  273:  288
          83       1:   64    5:    6  289:  304
          84       1:   64    5:    6  305:  320
          85       1:   64    5:    6  321:  335
          86       1:   64    5:    6  336:  350
          87       1:   64    5:    6  351:  365
          88       1:   64    5:    6  366:  380
          89       1:   64    5:    6  381:  395
          90       1:   64    5:    6  396:  410
          91       1:   64    5:    6  411:  425
          92       1:   64    5:    6  426:  440
          93       1:   64    5:    6  441:  455
          94       1:   64    5:    6  456:  470
          95       1:   64    5:    6  471:  485
          96       1:   64    5:    6  486:  500
          97       1:   64    7:    8    1:   16
          98       1:   64    7:    8   17:   32
          99       1:   64    7:    8   33:   48
         100       1:   64    7:    8   49:   64
         101       1:   64    7:    8   65:   80
         102       1:   64    7:    8   81:   96
         103       1:   64    7:    8   97:  112
         104       1:   64    7:    8  113:  128
         105       1:   64    7:    8  129:  144
         106       1:   64    7:    8  145:  160
         107       1:   64    7:    8  161:  176
         108       1:   64    7:    8  177:  192
         109       1:   64    7:    8  193:  208
         110       1:   64    7:    8  209:  224
         111       1:   64    7:    8  225:  240
         112       1:   64    7:    8  241:  256
         113       1:   64    7:    8  257:  272
         114       1:   64    7:    8  273:  288
         115       1:   64    7:    8  289:  304
         116       1:   64    7:    8  305:  320
         117       1:   64    7:    8  321:  335
         118       1:   64    7:    8  336:  350
         119       1:   64    7:    8  351:  365
         120       1:   64    7:    8  366:  380
         121       1:   64    7:    8  381:  395
         122       1:   64    7:    8  396:  410
         123       1:   64    7:    8  411:  425
         124       1:   64    7:    8  426:  440
         125       1:   64    7:    8  441:  455
         126       1:   64    7:    8  456:  470
         127       1:   64    7:    8  471:  485
         128       1:   64    7:    8  486:  500
         129       1:   64    9:   10    1:   16
         130       1:   64    9:   10   17:   32
         131       1:   64    9:   10   33:   48
         132       1:   64    9:   10   49:   64
         133       1:   64    9:   10   65:   80
         134       1:   64    9:   10   81:   96
         135       1:   64    9:   10   97:  112
         136       1:   64    9:   10  113:  128
         137       1:   64    9:   10  129:  144
         138       1:   64    9:   10  145:  160
         139       1:   64    9:   10  161:  176
         140       1:   64    9:   10  177:  192
         141       1:   64    9:   10  193:  208
         142       1:   64    9:   10  209:  224
         143       1:   64    9:   10  225:  240
         144       1:   64    9:   10  241:  256
         145       1:   64    9:   10  257:  272
         146       1:   64    9:   10  273:  288
         147       1:   64    9:   10  289:  304
         148       1:   64    9:   10  305:  320
         149       1:   64    9:   10  321:  335
         150       1:   64    9:   10  336:  350
         151       1:   64    9:   10  351:  365
         152       1:   64    9:   10  366:  380
         153       1:   64    9:   10  381:  395
         154       1:   64    9:   10  396:  410
         155       1:   64    9:   10  411:  425
         156       1:   64    9:   10  426:  440
         157       1:   64    9:   10  441:  455
         158       1:   64    9:   10  456:  470
         159       1:   64    9:   10  471:  485
         160       1:   64    9:   10  486:  500
         161       1:   64   11:   12    1:   16
         162       1:   64   11:   12   17:   32
         163       1:   64   11:   12   33:   48
         164       1:   64   11:   12   49:   64
         165       1:   64   11:   12   65:   80
         166       1:   64   11:   12   81:   96
         167       1:   64   11:   12   97:  112
         168       1:   64   11:   12  113:  128
         169       1:   64   11:   12  129:  144
         170       1:   64   11:   12  145:  160
         171       1:   64   11:   12  161:  176
         172       1:   64   11:   12  177:  192
         173       1:   64   11:   12  193:  208
         174       1:   64   11:   12  209:  224
         175       1:   64   11:   12  225:  240
         176       1:   64   11:   12  241:  256
         177       1:   64   11:   12  257:  272
         178       1:   64   11:   12  273:  288
         179       1:   64   11:   12  289:  304
         180       1:   64   11:   12  305:  320
         181       1:   64   11:   12  321:  335
         182       1:   64   11:   12  336:  350
         183       1:   64   11:   12  351:  365
         184       1:   64   11:   12  366:  380
         185       1:   64   11:   12  381:  395
         186       1:   64   11:   12  396:  410
         187       1:   64   11:   12  411:  425
         188       1:   64   11:   12  426:  440
         189       1:   64   11:   12  441:  455
         190       1:   64   11:   12  456:  470
         191       1:   64   11:   12  471:  485
         192       1:   64   11:   12  486:  500
         193       1:   64   13:   14    1:   16
         194       1:   64   13:   14   17:   32
         195       1:   64   13:   14   33:   48
         196       1:   64   13:   14   49:   64
         197       1:   64   13:   14   65:   80
         198       1:   64   13:   14   81:   96
         199       1:   64   13:   14   97:  112
         200       1:   64   13:   14  113:  128
         201       1:   64   13:   14  129:  144
         202       1:   64   13:   14  145:  160
         203       1:   64   13:   14  161:  176
         204       1:   64   13:   14  177:  192
         205       1:   64   13:   14  193:  208
         206       1:   64   13:   14  209:  224
         207       1:   64   13:   14  225:  240
         208       1:   64   13:   14  241:  256
         209       1:   64   13:   14  257:  272
         210       1:   64   13:   14  273:  288
         211       1:   64   13:   14  289:  304
         212       1:   64   13:   14  305:  320
         213       1:   64   13:   14  321:  335
         214       1:   64   13:   14  336:  350
         215       1:   64   13:   14  351:  365
         216       1:   64   13:   14  366:  380
         217       1:   64   13:   14  381:  395
         218       1:   64   13:   14  396:  410
         219       1:   64   13:   14  411:  425
         220       1:   64   13:   14  426:  440
         221       1:   64   13:   14  441:  455
         222       1:   64   13:   14  456:  470
         223       1:   64   13:   14  471:  485
         224       1:   64   13:   14  486:  500
         225       1:   64   15:   16    1:   16
         226       1:   64   15:   16   17:   32
         227       1:   64   15:   16   33:   48
         228       1:   64   15:   16   49:   64
         229       1:   64   15:   16   65:   80
         230       1:   64   15:   16   81:   96
         231       1:   64   15:   16   97:  112
         232       1:   64   15:   16  113:  128
         233       1:   64   15:   16  129:  144
         234       1:   64   15:   16  145:  160
         235       1:   64   15:   16  161:  176
         236       1:   64   15:   16  177:  192
         237       1:   64   15:   16  193:  208
         238       1:   64   15:   16  209:  224
         239       1:   64   15:   16  225:  240
         240       1:   64   15:   16  241:  256
         241       1:   64   15:   16  257:  272
         242       1:   64   15:   16  273:  288
         243       1:   64   15:   16  289:  304
         244       1:   64   15:   16  305:  320
         245       1:   64   15:   16  321:  335
         246       1:   64   15:   16  336:  350
         247       1:   64   15:   16  351:  365
         248       1:   64   15:   16  366:  380
         249       1:   64   15:   16  381:  395
         250       1:   64   15:   16  396:  410
         251       1:   64   15:   16  411:  425
         252       1:   64   15:   16  426:  440
         253       1:   64   15:   16  441:  455
         254       1:   64   15:   16  456:  470
         255       1:   64   15:   16  471:  485
         256       1:   64   15:   16  486:  500
         257       1:   64   17:   18    1:   16
         258       1:   64   17:   18   17:   32
         259       1:   64   17:   18   33:   48
         260       1:   64   17:   18   49:   64
         261       1:   64   17:   18   65:   80
         262       1:   64   17:   18   81:   96
         263       1:   64   17:   18   97:  112
         264       1:   64   17:   18  113:  128
         265       1:   64   17:   18  129:  144
         266       1:   64   17:   18  145:  160
         267       1:   64   17:   18  161:  176
         268       1:   64   17:   18  177:  192
         269       1:   64   17:   18  193:  208
         270       1:   64   17:   18  209:  224
         271       1:   64   17:   18  225:  240
         272       1:   64   17:   18  241:  256
         273       1:   64   17:   18  257:  272
         274       1:   64   17:   18  273:  288
         275       1:   64   17:   18  289:  304
         276       1:   64   17:   18  305:  320
         277       1:   64   17:   18  321:  335
         278       1:   64   17:   18  336:  350
         279       1:   64   17:   18  351:  365
         280       1:   64   17:   18  366:  380
         281       1:   64   17:   18  381:  395
         282       1:   64   17:   18  396:  410
         283       1:   64   17:   18  411:  425
         284       1:   64   17:   18  426:  440
         285       1:   64   17:   18  441:  455
         286       1:   64   17:   18  456:  470
         287       1:   64   17:   18  471:  485
         288       1:   64   17:   18  486:  500
         289       1:   64   19:   20    1:   16
         290       1:   64   19:   20   17:   32
         291       1:   64   19:   20   33:   48
         292       1:   64   19:   20   49:   64
         293       1:   64   19:   20   65:   80
         294       1:   64   19:   20   81:   96
         295       1:   64   19:   20   97:  112
         296       1:   64   19:   20  113:  128
         297       1:   64   19:   20  129:  144
         298       1:   64   19:   20  145:  160
         299       1:   64   19:   20  161:  176
         300       1:   64   19:   20  177:  192
         301       1:   64   19:   20  193:  208
         302       1:   64   19:   20  209:  224
         303       1:   64   19:   20  225:  240
         304       1:   64   19:   20  241:  256
         305       1:   64   19:   20  257:  272
         306       1:   64   19:   20  273:  288
         307       1:   64   19:   20  289:  304
         308       1:   64   19:   20  305:  320
         309       1:   64   19:   20  321:  335
         310       1:   64   19:   20  336:  350
         311       1:   64   19:   20  351:  365
         312       1:   64   19:   20  366:  380
         313       1:   64   19:   20  381:  395
         314       1:   64   19:   20  396:  410
         315       1:   64   19:   20  411:  425
         316       1:   64   19:   20  426:  440
         317       1:   64   19:   20  441:  455
         318       1:   64   19:   20  456:  470
         319       1:   64   19:   20  471:  485
         320       1:   64   19:   20  486:  500
         321       1:   64   21:   22    1:   16
         322       1:   64   21:   22   17:   32
         323       1:   64   21:   22   33:   48
         324       1:   64   21:   22   49:   64
         325       1:   64   21:   22   65:   80
         326       1:   64   21:   22   81:   96
         327       1:   64   21:   22   97:  112
         328       1:   64   21:   22  113:  128
         329       1:   64   21:   22  129:  144
         330       1:   64   21:   22  145:  160
         331       1:   64   21:   22  161:  176
         332       1:   64   21:   22  177:  192
         333       1:   64   21:   22  193:  208
         334       1:   64   21:   22  209:  224
         335       1:   64   21:   22  225:  240
         336       1:   64   21:   22  241:  256
         337       1:   64   21:   22  257:  272
         338       1:   64   21:   22  273:  288
         339       1:   64   21:   22  289:  304
         340       1:   64   21:   22  305:  320
         341       1:   64   21:   22  321:  335
         342       1:   64   21:   22  336:  350
         343       1:   64   21:   22  351:  365
         344       1:   64   21:   22  366:  380
         345       1:   64   21:   22  381:  395
         346       1:   64   21:   22  396:  410
         347       1:   64   21:   22  411:  425
         348       1:   64   21:   22  426:  440
         349       1:   64   21:   22  441:  455
         350       1:   64   21:   22  456:  470
         351       1:   64   21:   22  471:  485
         352       1:   64   21:   22  486:  500
         353       1:   64   23:   24    1:   16
         354       1:   64   23:   24   17:   32
         355       1:   64   23:   24   33:   48
         356       1:   64   23:   24   49:   64
         357       1:   64   23:   24   65:   80
         358       1:   64   23:   24   81:   96
         359       1:   64   23:   24   97:  112
         360       1:   64   23:   24  113:  128
         361       1:   64   23:   24  129:  144
         362       1:   64   23:   24  145:  160
         363       1:   64   23:   24  161:  176
         364       1:   64   23:   24  177:  192
         365       1:   64   23:   24  193:  208
         366       1:   64   23:   24  209:  224
         367       1:   64   23:   24  225:  240
         368       1:   64   23:   24  241:  256
         369       1:   64   23:   24  257:  272
         370       1:   64   23:   24  273:  288
         371       1:   64   23:   24  289:  304
         372       1:   64   23:   24  305:  320
         373       1:   64   23:   24  321:  335
         374       1:   64   23:   24  336:  350
         375       1:   64   23:   24  351:  365
         376       1:   64   23:   24  366:  380
         377       1:   64   23:   24  381:  395
         378       1:   64   23:   24  396:  410
         379       1:   64   23:   24  411:  425
         380       1:   64   23:   24  426:  440
         381       1:   64   23:   24  441:  455
         382       1:   64   23:   24  456:  470
         383       1:   64   23:   24  471:  485
         384       1:   64   23:   24  486:  500
         385       1:   64   25:   26    1:   16
         386       1:   64   25:   26   17:   32
         387       1:   64   25:   26   33:   48
         388       1:   64   25:   26   49:   64
         389       1:   64   25:   26   65:   80
         390       1:   64   25:   26   81:   96
         391       1:   64   25:   26   97:  112
         392       1:   64   25:   26  113:  128
         393       1:   64   25:   26  129:  144
         394       1:   64   25:   26  145:  160
         395       1:   64   25:   26  161:  176
         396       1:   64   25:   26  177:  192
         397       1:   64   25:   26  193:  208
         398       1:   64   25:   26  209:  224
         399       1:   64   25:   26  225:  240
         400       1:   64   25:   26  241:  256
         401       1:   64   25:   26  257:  272
         402       1:   64   25:   26  273:  288
         403       1:   64   25:   26  289:  304
         404       1:   64   25:   26  305:  320
         405       1:   64   25:   26  321:  335
         406       1:   64   25:   26  336:  350
         407       1:   64   25:   26  351:  365
         408       1:   64   25:   26  366:  380
         409       1:   64   25:   26  381:  395
         410       1:   64   25:   26  396:  410
         411       1:   64   25:   26  411:  425
         412       1:   64   25:   26  426:  440
         413       1:   64   25:   26  441:  455
         414       1:   64   25:   26  456:  470
         415       1:   64   25:   26  471:  485
         416       1:   64   25:   26  486:  500
         417       1:   64   27:   28    1:   16
         418       1:   64   27:   28   17:   32
         419       1:   64   27:   28   33:   48
         420       1:   64   27:   28   49:   64
         421       1:   64   27:   28   65:   80
         422       1:   64   27:   28   81:   96
         423       1:   64   27:   28   97:  112
         424       1:   64   27:   28  113:  128
         425       1:   64   27:   28  129:  144
         426       1:   64   27:   28  145:  160
         427       1:   64   27:   28  161:  176
         428       1:   64   27:   28  177:  192
         429       1:   64   27:   28  193:  208
         430       1:   64   27:   28  209:  224
         431       1:   64   27:   28  225:  240
         432       1:   64   27:   28  241:  256
         433       1:   64   27:   28  257:  272
         434       1:   64   27:   28  273:  288
         435       1:   64   27:   28  289:  304
         436       1:   64   27:   28  305:  320
         437       1:   64   27:   28  321:  335
         438       1:   64   27:   28  336:  350
         439       1:   64   27:   28  351:  365
         440       1:   64   27:   28  366:  380
         441       1:   64   27:   28  381:  395
         442       1:   64   27:   28  396:  410
         443       1:   64   27:   28  411:  425
         444       1:   64   27:   28  426:  440
         445       1:   64   27:   28  441:  455
         446       1:   64   27:   28  456:  470
         447       1:   64   27:   28  471:  485
         448       1:   64   27:   28  486:  500
         449       1:   64   29:   30    1:   16
         450       1:   64   29:   30   17:   32
         451       1:   64   29:   30   33:   48
         452       1:   64   29:   30   49:   64
         453       1:   64   29:   30   65:   80
         454       1:   64   29:   30   81:   96
         455       1:   64   29:   30   97:  112
         456       1:   64   29:   30  113:  128
         457       1:   64   29:   30  129:  144
         458       1:   64   29:   30  145:  160
         459       1:   64   29:   30  161:  176
         460       1:   64   29:   30  177:  192
         461       1:   64   29:   30  193:  208
         462       1:   64   29:   30  209:  224
         463       1:   64   29:   30  225:  240
         464       1:   64   29:   30  241:  256
         465       1:   64   29:   30  257:  272
         466       1:   64   29:   30  273:  288
         467       1:   64   29:   30  289:  304
         468       1:   64   29:   30  305:  320
         469       1:   64   29:   30  321:  335
         470       1:   64   29:   30  336:  350
         471       1:   64   29:   30  351:  365
         472       1:   64   29:   30  366:  380
         473       1:   64   29:   30  381:  395
         474       1:   64   29:   30  396:  410
         475       1:   64   29:   30  411:  425
         476       1:   64   29:   30  426:  440
         477       1:   64   29:   30  441:  455
         478       1:   64   29:   30  456:  470
         479       1:   64   29:   30  471:  485
         480       1:   64   29:   30  486:  500
         481       1:   64   31:   32    1:   16
         482       1:   64   31:   32   17:   32
         483       1:   64   31:   32   33:   48
         484       1:   64   31:   32   49:   64
         485       1:   64   31:   32   65:   80
         486       1:   64   31:   32   81:   96
         487       1:   64   31:   32   97:  112
         488       1:   64   31:   32  113:  128
         489       1:   64   31:   32  129:  144
         490       1:   64   31:   32  145:  160
         491       1:   64   31:   32  161:  176
         492       1:   64   31:   32  177:  192
         493       1:   64   31:   32  193:  208
         494       1:   64   31:   32  209:  224
         495       1:   64   31:   32  225:  240
         496       1:   64   31:   32  241:  256
         497       1:   64   31:   32  257:  272
         498       1:   64   31:   32  273:  288
         499       1:   64   31:   32  289:  304
         500       1:   64   31:   32  305:  320
         501       1:   64   31:   32  321:  335
         502       1:   64   31:   32  336:  350
         503       1:   64   31:   32  351:  365
         504       1:   64   31:   32  366:  380
         505       1:   64   31:   32  381:  395
         506       1:   64   31:   32  396:  410
         507       1:   64   31:   32  411:  425
         508       1:   64   31:   32  426:  440
         509       1:   64   31:   32  441:  455
         510       1:   64   31:   32  456:  470
         511       1:   64   31:   32  471:  485
         512       1:   64   31:   32  486:  500
         513       1:   64   33:   34    1:   16
         514       1:   64   33:   34   17:   32
         515       1:   64   33:   34   33:   48
         516       1:   64   33:   34   49:   64
         517       1:   64   33:   34   65:   80
         518       1:   64   33:   34   81:   96
         519       1:   64   33:   34   97:  112
         520       1:   64   33:   34  113:  128
         521       1:   64   33:   34  129:  144
         522       1:   64   33:   34  145:  160
         523       1:   64   33:   34  161:  176
         524       1:   64   33:   34  177:  192
         525       1:   64   33:   34  193:  208
         526       1:   64   33:   34  209:  224
         527       1:   64   33:   34  225:  240
         528       1:   64   33:   34  241:  256
         529       1:   64   33:   34  257:  272
         530       1:   64   33:   34  273:  288
         531       1:   64   33:   34  289:  304
         532       1:   64   33:   34  305:  320
         533       1:   64   33:   34  321:  335
         534       1:   64   33:   34  336:  350
         535       1:   64   33:   34  351:  365
         536       1:   64   33:   34  366:  380
         537       1:   64   33:   34  381:  395
         538       1:   64   33:   34  396:  410
         539       1:   64   33:   34  411:  425
         540       1:   64   33:   34  426:  440
         541       1:   64   33:   34  441:  455
         542       1:   64   33:   34  456:  470
         543       1:   64   33:   34  471:  485
         544       1:   64   33:   34  486:  500
         545       1:   64   35:   36    1:   16
         546       1:   64   35:   36   17:   32
         547       1:   64   35:   36   33:   48
         548       1:   64   35:   36   49:   64
         549       1:   64   35:   36   65:   80
         550       1:   64   35:   36   81:   96
         551       1:   64   35:   36   97:  112
         552       1:   64   35:   36  113:  128
         553       1:   64   35:   36  129:  144
         554       1:   64   35:   36  145:  160
         555       1:   64   35:   36  161:  176
         556       1:   64   35:   36  177:  192
         557       1:   64   35:   36  193:  208
         558       1:   64   35:   36  209:  224
         559       1:   64   35:   36  225:  240
         560       1:   64   35:   36  241:  256
         561       1:   64   35:   36  257:  272
         562       1:   64   35:   36  273:  288
         563       1:   64   35:   36  289:  304
         564       1:   64   35:   36  305:  320
         565       1:   64   35:   36  321:  335
         566       1:   64   35:   36  336:  350
         567       1:   64   35:   36  351:  365
         568       1:   64   35:   36  366:  380
         569       1:   64   35:   36  381:  395
         570       1:   64   35:   36  396:  410
         571       1:   64   35:   36  411:  425
         572       1:   64   35:   36  426:  440
         573       1:   64   35:   36  441:  455
         574       1:   64   35:   36  456:  470
         575       1:   64   35:   36  471:  485
         576       1:   64   35:   36  486:  500
         577       1:   64   37:   38    1:   16
         578       1:   64   37:   38   17:   32
         579       1:   64   37:   38   33:   48
         580       1:   64   37:   38   49:   64
         581       1:   64   37:   38   65:   80
         582       1:   64   37:   38   81:   96
         583       1:   64   37:   38   97:  112
         584       1:   64   37:   38  113:  128
         585       1:   64   37:   38  129:  144
         586       1:   64   37:   38  145:  160
         587       1:   64   37:   38  161:  176
         588       1:   64   37:   38  177:  192
         589       1:   64   37:   38  193:  208
         590       1:   64   37:   38  209:  224
         591       1:   64   37:   38  225:  240
         592       1:   64   37:   38  241:  256
         593       1:   64   37:   38  257:  272
         594       1:   64   37:   38  273:  288
         595       1:   64   37:   38  289:  304
         596       1:   64   37:   38  305:  320
         597       1:   64   37:   38  321:  335
         598       1:   64   37:   38  336:  350
         599       1:   64   37:   38  351:  365
         600       1:   64   37:   38  366:  380
         601       1:   64   37:   38  381:  395
         602       1:   64   37:   38  396:  410
         603       1:   64   37:   38  411:  425
         604       1:   64   37:   38  426:  440
         605       1:   64   37:   38  441:  455
         606       1:   64   37:   38  456:  470
         607       1:   64   37:   38  471:  485
         608       1:   64   37:   38  486:  500
         609       1:   64   39:   40    1:   16
         610       1:   64   39:   40   17:   32
         611       1:   64   39:   40   33:   48
         612       1:   64   39:   40   49:   64
         613       1:   64   39:   40   65:   80
         614       1:   64   39:   40   81:   96
         615       1:   64   39:   40   97:  112
         616       1:   64   39:   40  113:  128
         617       1:   64   39:   40  129:  144
         618       1:   64   39:   40  145:  160
         619       1:   64   39:   40  161:  176
         620       1:   64   39:   40  177:  192
         621       1:   64   39:   40  193:  208
         622       1:   64   39:   40  209:  224
         623       1:   64   39:   40  225:  240
         624       1:   64   39:   40  241:  256
         625       1:   64   39:   40  257:  272
         626       1:   64   39:   40  273:  288
         627       1:   64   39:   40  289:  304
         628       1:   64   39:   40  305:  320
         629       1:   64   39:   40  321:  335
         630       1:   64   39:   40  336:  350
         631       1:   64   39:   40  351:  365
         632       1:   64   39:   40  366:  380
         633       1:   64   39:   40  381:  395
         634       1:   64   39:   40  396:  410
         635       1:   64   39:   40  411:  425
         636       1:   64   39:   40  426:  440
         637       1:   64   39:   40  441:  455
         638       1:   64   39:   40  456:  470
         639       1:   64   39:   40  471:  485
         640       1:   64   39:   40  486:  500
         641       1:   64   41:   42    1:   16
         642       1:   64   41:   42   17:   32
         643       1:   64   41:   42   33:   48
         644       1:   64   41:   42   49:   64
         645       1:   64   41:   42   65:   80
         646       1:   64   41:   42   81:   96
         647       1:   64   41:   42   97:  112
         648       1:   64   41:   42  113:  128
         649       1:   64   41:   42  129:  144
         650       1:   64   41:   42  145:  160
         651       1:   64   41:   42  161:  176
         652       1:   64   41:   42  177:  192
         653       1:   64   41:   42  193:  208
         654       1:   64   41:   42  209:  224
         655       1:   64   41:   42  225:  240
         656       1:   64   41:   42  241:  256
         657       1:   64   41:   42  257:  272
         658       1:   64   41:   42  273:  288
         659       1:   64   41:   42  289:  304
         660       1:   64   41:   42  305:  320
         661       1:   64   41:   42  321:  335
         662       1:   64   41:   42  336:  350
         663       1:   64   41:   42  351:  365
         664       1:   64   41:   42  366:  380
         665       1:   64   41:   42  381:  395
         666       1:   64   41:   42  396:  410
         667       1:   64   41:   42  411:  425
         668       1:   64   41:   42  426:  440
         669       1:   64   41:   42  441:  455
         670       1:   64   41:   42  456:  470
         671       1:   64   41:   42  471:  485
         672       1:   64   41:   42  486:  500
         673       1:   64   43:   44    1:   16
         674       1:   64   43:   44   17:   32
         675       1:   64   43:   44   33:   48
         676       1:   64   43:   44   49:   64
         677       1:   64   43:   44   65:   80
         678       1:   64   43:   44   81:   96
         679       1:   64   43:   44   97:  112
         680       1:   64   43:   44  113:  128
         681       1:   64   43:   44  129:  144
         682       1:   64   43:   44  145:  160
         683       1:   64   43:   44  161:  176
         684       1:   64   43:   44  177:  192
         685       1:   64   43:   44  193:  208
         686       1:   64   43:   44  209:  224
         687       1:   64   43:   44  225:  240
         688       1:   64   43:   44  241:  256
         689       1:   64   43:   44  257:  272
         690       1:   64   43:   44  273:  288
         691       1:   64   43:   44  289:  304
         692       1:   64   43:   44  305:  320
         693       1:   64   43:   44  321:  335
         694       1:   64   43:   44  336:  350
         695       1:   64   43:   44  351:  365
         696       1:   64   43:   44  366:  380
         697       1:   64   43:   44  381:  395
         698       1:   64   43:   44  396:  410
         699       1:   64   43:   44  411:  425
         700       1:   64   43:   44  426:  440
         701       1:   64   43:   44  441:  455
         702       1:   64   43:   44  456:  470
         703       1:   64   43:   44  471:  485
         704       1:   64   43:   44  486:  500
         705       1:   64   45:   46    1:   16
         706       1:   64   45:   46   17:   32
         707       1:   64   45:   46   33:   48
         708       1:   64   45:   46   49:   64
         709       1:   64   45:   46   65:   80
         710       1:   64   45:   46   81:   96
         711       1:   64   45:   46   97:  112
         712       1:   64   45:   46  113:  128
         713       1:   64   45:   46  129:  144
         714       1:   64   45:   46  145:  160
         715       1:   64   45:   46  161:  176
         716       1:   64   45:   46  177:  192
         717       1:   64   45:   46  193:  208
         718       1:   64   45:   46  209:  224
         719       1:   64   45:   46  225:  240
         720       1:   64   45:   46  241:  256
         721       1:   64   45:   46  257:  272
         722       1:   64   45:   46  273:  288
         723       1:   64   45:   46  289:  304
         724       1:   64   45:   46  305:  320
         725       1:   64   45:   46  321:  335
         726       1:   64   45:   46  336:  350
         727       1:   64   45:   46  351:  365
         728       1:   64   45:   46  366:  380
         729       1:   64   45:   46  381:  395
         730       1:   64   45:   46  396:  410
         731       1:   64   45:   46  411:  425
         732       1:   64   45:   46  426:  440
         733       1:   64   45:   46  441:  455
         734       1:   64   45:   46  456:  470
         735       1:   64   45:   46  471:  485
         736       1:   64   45:   46  486:  500
         737       1:   64   47:   48    1:   16
         738       1:   64   47:   48   17:   32
         739       1:   64   47:   48   33:   48
         740       1:   64   47:   48   49:   64
         741       1:   64   47:   48   65:   80
         742       1:   64   47:   48   81:   96
         743       1:   64   47:   48   97:  112
         744       1:   64   47:   48  113:  128
         745       1:   64   47:   48  129:  144
         746       1:   64   47:   48  145:  160
         747       1:   64   47:   48  161:  176
         748       1:   64   47:   48  177:  192
         749       1:   64   47:   48  193:  208
         750       1:   64   47:   48  209:  224
         751       1:   64   47:   48  225:  240
         752       1:   64   47:   48  241:  256
         753       1:   64   47:   48  257:  272
         754       1:   64   47:   48  273:  288
         755       1:   64   47:   48  289:  304
         756       1:   64   47:   48  305:  320
         757       1:   64   47:   48  321:  335
         758       1:   64   47:   48  336:  350
         759       1:   64   47:   48  351:  365
         760       1:   64   47:   48  366:  380
         761       1:   64   47:   48  381:  395
         762       1:   64   47:   48  396:  410
         763       1:   64   47:   48  411:  425
         764       1:   64   47:   48  426:  440
         765       1:   64   47:   48  441:  455
         766       1:   64   47:   48  456:  470
         767       1:   64   47:   48  471:  485
         768       1:   64   47:   48  486:  500
         769       1:   64   49:   50    1:   16
         770       1:   64   49:   50   17:   32
         771       1:   64   49:   50   33:   48
         772       1:   64   49:   50   49:   64
         773       1:   64   49:   50   65:   80
         774       1:   64   49:   50   81:   96
         775       1:   64   49:   50   97:  112
         776       1:   64   49:   50  113:  128
         777       1:   64   49:   50  129:  144
         778       1:   64   49:   50  145:  160
         779       1:   64   49:   50  161:  176
         780       1:   64   49:   50  177:  192
         781       1:   64   49:   50  193:  208
         782       1:   64   49:   50  209:  224
         783       1:   64   49:   50  225:  240
         784       1:   64   49:   50  241:  256
         785       1:   64   49:   50  257:  272
         786       1:   64   49:   50  273:  288
         787       1:   64   49:   50  289:  304
         788       1:   64   49:   50  305:  320
         789       1:   64   49:   50  321:  335
         790       1:   64   49:   50  336:  350
         791       1:   64   49:   50  351:  365
         792       1:   64   49:   50  366:  380
         793       1:   64   49:   50  381:  395
         794       1:   64   49:   50  396:  410
         795       1:   64   49:   50  411:  425
         796       1:   64   49:   50  426:  440
         797       1:   64   49:   50  441:  455
         798       1:   64   49:   50  456:  470
         799       1:   64   49:   50  471:  485
         800       1:   64   49:   50  486:  500
         801       1:   64   51:   52    1:   16
         802       1:   64   51:   52   17:   32
         803       1:   64   51:   52   33:   48
         804       1:   64   51:   52   49:   64
         805       1:   64   51:   52   65:   80
         806       1:   64   51:   52   81:   96
         807       1:   64   51:   52   97:  112
         808       1:   64   51:   52  113:  128
         809       1:   64   51:   52  129:  144
         810       1:   64   51:   52  145:  160
         811       1:   64   51:   52  161:  176
         812       1:   64   51:   52  177:  192
         813       1:   64   51:   52  193:  208
         814       1:   64   51:   52  209:  224
         815       1:   64   51:   52  225:  240
         816       1:   64   51:   52  241:  256
         817       1:   64   51:   52  257:  272
         818       1:   64   51:   52  273:  288
         819       1:   64   51:   52  289:  304
         820       1:   64   51:   52  305:  320
         821       1:   64   51:   52  321:  335
         822       1:   64   51:   52  336:  350
         823       1:   64   51:   52  351:  365
         824       1:   64   51:   52  366:  380
         825       1:   64   51:   52  381:  395
         826       1:   64   51:   52  396:  410
         827       1:   64   51:   52  411:  425
         828       1:   64   51:   52  426:  440
         829       1:   64   51:   52  441:  455
         830       1:   64   51:   52  456:  470
         831       1:   64   51:   52  471:  485
         832       1:   64   51:   52  486:  500
         833       1:   64   53:   54    1:   16
         834       1:   64   53:   54   17:   32
         835       1:   64   53:   54   33:   48
         836       1:   64   53:   54   49:   64
         837       1:   64   53:   54   65:   80
         838       1:   64   53:   54   81:   96
         839       1:   64   53:   54   97:  112
         840       1:   64   53:   54  113:  128
         841       1:   64   53:   54  129:  144
         842       1:   64   53:   54  145:  160
         843       1:   64   53:   54  161:  176
         844       1:   64   53:   54  177:  192
         845       1:   64   53:   54  193:  208
         846       1:   64   53:   54  209:  224
         847       1:   64   53:   54  225:  240
         848       1:   64   53:   54  241:  256
         849       1:   64   53:   54  257:  272
         850       1:   64   53:   54  273:  288
         851       1:   64   53:   54  289:  304
         852       1:   64   53:   54  305:  320
         853       1:   64   53:   54  321:  335
         854       1:   64   53:   54  336:  350
         855       1:   64   53:   54  351:  365
         856       1:   64   53:   54  366:  380
         857       1:   64   53:   54  381:  395
         858       1:   64   53:   54  396:  410
         859       1:   64   53:   54  411:  425
         860       1:   64   53:   54  426:  440
         861       1:   64   53:   54  441:  455
         862       1:   64   53:   54  456:  470
         863       1:   64   53:   54  471:  485
         864       1:   64   53:   54  486:  500
         865       1:   64   55:   56    1:   16
[...]
Time (sec):           1.049e+02      1.00000   1.049e+02
Objects:              2.366e+03      1.06529   2.358e+03
Flops:                3.616e+08   3264.52045   2.108e+08  2.159e+11
Flops/sec:            3.449e+06   3264.52024   2.011e+06  2.059e+09
MPI Messages:         2.061e+04      3.61020   1.430e+04  1.465e+07
MPI Message Lengths:  1.070e+07      3.79241   4.877e+02  7.144e+09
MPI Reductions:       1.068e+04      1.39859

Flop counting convention: 1 flop = 1 real number operation of type (multiply/divide/add/subtract)
                            e.g., VecAXPY() for real vectors of length N --> 2N flops
                            and VecAXPY() for complex vectors of length N --> 8N flops

Summary of Stages:   ----- Time ------  ----- Flops -----  --- Messages ---  -- Message Lengths --  -- Reductions --
                        Avg     %Total     Avg     %Total   counts   %Total     Avg         %Total   counts   %Total 
 0:      Main Stage: 1.9468e-04   0.0%  0.0000e+00   0.0%  0.000e+00   0.0%  0.000e+00        0.0%  0.000e+00   0.0% 
 1:     siesta_init: 2.8089e+00   2.7%  0.0000e+00   0.0%  0.000e+00   0.0%  0.000e+00        0.0%  0.000e+00   0.0% 
 2:   siesta_forces: 6.0824e+01  58.0%  0.0000e+00   0.0%  0.000e+00   0.0%  0.000e+00        0.0%  0.000e+00   0.0% 
 3:    siesta_solve: 5.0745e-04   0.0%  0.0000e+00   0.0%  0.000e+00   0.0%  0.000e+00        0.0%  0.000e+00   0.0% 
 4:    siesta2qetsc: 3.3728e-02   0.0%  0.0000e+00   0.0%  2.794e+05   1.9%  2.332e-01        0.0%  5.300e+01   0.7% 
 5: qetsc_setup_eps: 1.3913e+00   1.3%  1.5676e+08   0.1%  3.253e+06  22.2%  1.641e+02       33.6%  3.000e+02   3.9% 
 6: qetsc_solve_eps: 1.6812e+01  16.0%  2.1572e+11  99.9%  5.418e+06  37.0%  3.162e+02       64.8%  2.524e+03  33.0% 
 7:   qetsc_eigvals: 2.2683e-03   0.0%  0.0000e+00   0.0%  0.000e+00   0.0%  0.000e+00        0.0%  0.000e+00   0.0% 
 8:   qetsc_density: 4.3045e+00   4.1%  0.0000e+00   0.0%  5.698e+06  38.9%  7.250e+00        1.5%  6.932e+03  90.7% 
10:     siesta_misc: 3.6497e+00   3.5%  0.0000e+00   0.0%  0.000e+00   0.0%  0.000e+00        0.0%  0.000e+00   0.0% 
11:     siesta_move: 1.2242e-01   0.1%  0.0000e+00   0.0%  0.000e+00   0.0%  0.000e+00        0.0%  0.000e+00   0.0% 
12: siesta_analysis: 2.9162e-03   0.0%  0.0000e+00   0.0%  0.000e+00   0.0%  0.000e+00        0.0%  0.000e+00   0.0% 
13:     qetsc_clean: 3.5390e-06   0.0%  0.0000e+00   0.0%  0.000e+00   0.0%  0.000e+00        0.0%  0.000e+00   0.0% 
14:      siesta_end: 1.4900e+01  14.2%  0.0000e+00   0.0%  0.000e+00   0.0%  0.000e+00        0.0%  0.000e+00   0.0% 

------------------------------------------------------------------------------------------------------------------------
See the 'Profiling' chapter of the users' manual for details on interpreting output.
Phase summary info:
   Count: number of times phase was executed
   Time and Flops: Max - maximum over all processors
                   Ratio - ratio of maximum to minimum over all processors
   Mess: number of messages sent
   Avg. len: average message length (bytes)
   Reduct: number of global reductions
   Global: entire computation
   Stage: stages of a computation. Set stages with PetscLogStagePush() and PetscLogStagePop().
      %T - percent time in this phase         %F - percent flops in this phase
      %M - percent messages in this phase     %L - percent message lengths in this phase
      %R - percent reductions in this phase
   Total Mflop/s: 10e-6 * (sum of flops over all processors)/(max time over all processors)
------------------------------------------------------------------------------------------------------------------------
Event                Count      Time (sec)     Flops                             --- Global ---  --- Stage ---   Total
                   Max Ratio  Max     Ratio   Max  Ratio  Mess   Avg len Reduct  %T %F %M %L %R  %T %F %M %L %R Mflop/s
------------------------------------------------------------------------------------------------------------------------

--- Event Stage 0: Main Stage


--- Event Stage 1: siesta_init


--- Event Stage 2: siesta_forces


--- Event Stage 3: siesta_solve


--- Event Stage 4: siesta2qetsc

MatConvert             2 1.0 1.6107e-03 1.6 0.00e+00 0.0 0.0e+00 0.0e+00 0.0e+00  0  0  0  0  0   4  0  0  0  0     0
MatAssemblyBegin      10 1.0 1.1945e-02 2.5 0.00e+00 0.0 0.0e+00 0.0e+00 4.0e+01  0  0  0  0  1  26  0  0  0 75     0
MatAssemblyEnd        10 1.0 6.9429e-03 1.0 0.00e+00 0.0 2.8e+05 1.2e+01 1.1e+01  0  0  2  0  0  21  0100100 21     0
VecSet                 3 1.0 1.3528e-05 1.6 0.00e+00 0.0 0.0e+00 0.0e+00 0.0e+00  0  0  0  0  0   0  0  0  0  0     0

--- Event Stage 5: qetsc_setup_eps

MatCholFctrSym         1 1.0 1.0523e-01 1.0 0.00e+00 0.0 0.0e+00 0.0e+00 5.0e+00  0  0  0  0  0   8  0  0  0  2     0
MatCholFctrNum         5 1.0 7.5517e-01 1.0 0.00e+00 0.0 0.0e+00 0.0e+00 0.0e+00  1  0  0  0  0  54  0  0  0  0     0
MatCopy                4 1.0 5.8423e-02 1.0 0.00e+00 0.0 0.0e+00 0.0e+00 2.4e+01  0  0  0  0  0   4  0  0  0  8     0
MatConvert             1 1.0 8.3939e-04 1.2 0.00e+00 0.0 0.0e+00 0.0e+00 0.0e+00  0  0  0  0  0   0  0  0  0  0     0
MatScale              16 1.0 9.9988e-04 1.6 1.95e+05 1.8 0.0e+00 0.0e+00 0.0e+00  0  0  0  0  0   0100  0  0  0 156781
MatAssemblyBegin      29 1.0 1.5131e-0181.8 0.00e+00 0.0 0.0e+00 0.0e+00 7.6e+01  0  0  0  0  1   5  0  0  0 25     0
MatAssemblyEnd        29 1.0 1.9703e-02 1.0 0.00e+00 0.0 8.1e+04 2.6e+02 8.8e+01  0  0  1  0  1   1  0  2  1 29     0
MatGetRow           2576 1.0 5.7781e-02 2.0 0.00e+00 0.0 0.0e+00 0.0e+00 0.0e+00  0  0  0  0  0   3  0  0  0  0     0
MatGetSubMatrice      10 1.0 1.2026e-01 1.6 0.00e+00 0.0 3.2e+06 7.5e+02 2.0e+01  0  0 22 33  0   7  0 97 99  7     0
MatZeroEntries         4 1.0 5.1888e-04 1.9 0.00e+00 0.0 0.0e+00 0.0e+00 0.0e+00  0  0  0  0  0   0  0  0  0  0     0
MatAXPY               13 1.0 1.4207e-01 1.0 0.00e+00 0.0 5.1e+04 2.6e+02 8.0e+01  0  0  0  0  1  10  0  2  1 27     0
MatRedundantMat       10 1.0 2.4555e-01 1.2 0.00e+00 0.0 3.2e+06 7.5e+02 1.0e+02  0  0 22 33  1  17  0 98 99 35     0
MatMPIConcateSeq      10 1.0 1.4536e-01 1.3 0.00e+00 0.0 3.0e+04 2.6e+02 8.5e+01  0  0  0  0  1   9  0  1  0 28     0
VecSet                10 1.0 4.1392e-05 1.7 0.00e+00 0.0 0.0e+00 0.0e+00 0.0e+00  0  0  0  0  0   0  0  0  0  0     0
EPSSetUp               5 1.0 1.2077e+00 1.0 0.00e+00 0.0 7.1e+05 7.0e+02 2.4e+02  1  0  5  7  3  86  0 22 21 78     0
STSetUp               10 1.0 1.0694e+00 1.0 0.00e+00 0.0 5.1e+04 2.6e+02 1.1e+02  1  0  0  0  1  76  0  2  1 38     0
KSPSetUp               5 1.0 1.3353e-05 2.5 0.00e+00 0.0 0.0e+00 0.0e+00 0.0e+00  0  0  0  0  0   0  0  0  0  0     0
PCSetUp                5 1.0 8.6926e-01 1.0 0.00e+00 0.0 0.0e+00 0.0e+00 5.0e+00  1  0  0  0  0  62  0  0  0  2     0

--- Event Stage 6: qetsc_solve_eps

MatMult             2873 0.0 1.5813e+00 0.0 2.79e+08 0.0 4.1e+06 7.4e+02 0.0e+00  1 73 28 43  0   5 73 76 66  0 99413
MatSolve            1086 0.0 1.0418e+01 0.0 0.00e+00 0.0 1.2e+06 1.3e+03 7.7e+02  7  0  8 22 10  43  0 22 34 31     0
MatCholFctrNum         9 1.0 1.3325e+00 1.0 0.00e+00 0.0 0.0e+00 0.0e+00 0.0e+00  1  0  0  0  0   8  0  0  0  0     0
MatCopy                9 1.0 1.3135e-01 1.0 0.00e+00 0.0 0.0e+00 0.0e+00 5.4e+01  0  0  0  0  1   1  0  0  0  2     0
MatAssemblyBegin      18 1.0 1.6697e-0196.7 0.00e+00 0.0 0.0e+00 0.0e+00 7.2e+01  0  0  0  0  1   1  0  0  0  3     0
MatAssemblyEnd        18 1.0 1.9998e-02 1.0 0.00e+00 0.0 9.1e+04 2.6e+02 1.1e+02  0  0  1  0  1   0  0  2  1  4     0
MatGetRow           4968 1.0 1.1105e-01 2.0 0.00e+00 0.0 0.0e+00 0.0e+00 0.0e+00  0  0  0  0  0   0  0  0  0  0     0
MatZeroEntries         9 1.0 1.2528e-03 1.4 0.00e+00 0.0 0.0e+00 0.0e+00 0.0e+00  0  0  0  0  0   0  0  0  0  0     0
MatAXPY                9 1.0 2.5458e-01 1.0 0.00e+00 0.0 9.1e+04 2.6e+02 1.4e+02  0  0  1  0  2   2  0  2  1  6     0
VecDot               149 0.0 2.8235e-02 0.0 5.47e+04 0.0 0.0e+00 0.0e+00 5.4e+01  0  0  0  0  1   0  0  0  0  2   719
VecCopy               18 0.0 6.2140e-05 0.0 0.00e+00 0.0 0.0e+00 0.0e+00 0.0e+00  0  0  0  0  0   0  0  0  0  0     0
VecSet              97141079.3 1.9125e-02797.3 0.00e+00 0.0 0.0e+00 0.0e+00 0.0e+00  0  0  0  0  0   0  0  0  0  0     0
VecScatterBegin     5045 0.0 4.8834e-01 0.0 0.00e+00 0.0 5.3e+06 8.7e+02 7.6e+02  0  0 36 64 10   2  0 98 99 30     0
VecScatterEnd       3959 0.0 4.6370e-01 0.0 0.00e+00 0.0 0.0e+00 0.0e+00 0.0e+00  0  0  0  0  0   1  0  0  0  0     0
VecSetRandom           9 0.0 1.0418e-03 0.0 0.00e+00 0.0 0.0e+00 0.0e+00 0.0e+00  0  0  0  0  0   0  0  0  0  0     0
EPSSetUp               9 1.0 2.4517e+00 1.4 0.00e+00 0.0 9.2e+04 2.6e+02 3.1e+02  2  0  1  0  4  15  0  2  1 12     0
EPSSolve               9 1.0 1.6821e+01 1.0 3.61e+08 0.0 5.4e+06 8.5e+02 2.5e+03 16100 37 65 33 100100100100100 12824
STSetUp               13 1.0 7.6722e-01 1.0 0.00e+00 0.0 4.0e+04 2.6e+02 8.8e+01  1  0  0  0  1   4  0  1  0  3     0
STApply             1086 0.0 1.1022e+01 0.0 1.06e+08 0.0 2.7e+06 9.9e+02 7.7e+02  7 27 19 38 10  45 27 51 58 31  5336
STMatSolve          1086 0.0 1.0562e+01 0.0 0.00e+00 0.0 1.2e+06 1.3e+03 7.7e+02  7  0  8 22 10  43  0 22 34 31     0
KSPSetUp               9 1.0 1.9946e-05 2.3 0.00e+00 0.0 0.0e+00 0.0e+00 0.0e+00  0  0  0  0  0   0  0  0  0  0     0
KSPSolve            1086 0.0 1.0448e+01 0.0 0.00e+00 0.0 1.2e+06 1.3e+03 7.7e+02  7  0  8 22 10  43  0 22 34 31     0
PCSetUp                9 1.0 1.3328e+00 1.0 0.00e+00 0.0 0.0e+00 0.0e+00 0.0e+00  1  0  0  0  0   8  0  0  0  0     0
PCApply             1086 0.0 1.0421e+01 0.0 0.00e+00 0.0 1.2e+06 1.3e+03 7.7e+02  7  0  8 22 10  43  0 22 34 31     0
BVCreate              18 0.0 5.3015e-03 0.0 0.00e+00 0.0 0.0e+00 0.0e+00 1.0e+02  0  0  0  0  1   0  0  0  0  4     0
BVCopy                18 0.0 1.7284e-04 0.0 0.00e+00 0.0 0.0e+00 0.0e+00 0.0e+00  0  0  0  0  0   0  0  0  0  0     0
BVMultVec           1660 0.0 5.8313e-02 0.0 2.88e+07 0.0 0.0e+00 0.0e+00 0.0e+00  0  9  0  0  0   0  9  0  0  0 319136
BVMultInPlace         18 0.0 1.2460e-02 0.0 2.39e+07 0.0 0.0e+00 0.0e+00 0.0e+00  0 10  0  0  0   0 10  0  0  0 1660309
BVDotVec            1660 0.0 1.0278e+00 0.0 1.91e+08 0.0 2.5e+06 7.4e+02 1.2e+03  1 52 17 26 16   4 52 46 39 48 110187
BVOrthogonalizeV     959 0.0 1.0964e+00 0.0 2.19e+08 0.0 2.5e+06 7.4e+02 1.2e+03  1 61 17 26 16   5 61 46 39 48 120269
BVScale             1086 0.0 5.3351e-03 0.0 2.00e+05 0.0 0.0e+00 0.0e+00 0.0e+00  0  0  0  0  0   0  0  0  0  0 26692
BVNormVec            149 0.0 9.5287e-02 0.0 1.45e+07 0.0 1.1e+05 7.4e+02 5.4e+01  0  2  1  1  1   0  2  2  2  2 44312
BVSetRandom            9 0.0 1.1410e-03 0.0 0.00e+00 0.0 0.0e+00 0.0e+00 0.0e+00  0  0  0  0  0   0  0  0  0  0     0
DSSolve               18 0.0 1.7359e-01 0.0 0.00e+00 0.0 0.0e+00 0.0e+00 0.0e+00  0  0  0  0  0   1  0  0  0  0     0
DSVectors           1176 0.0 2.7775e-03 0.0 0.00e+00 0.0 0.0e+00 0.0e+00 0.0e+00  0  0  0  0  0   0  0  0  0  0     0
DSOther               18 0.0 4.8396e-03 0.0 0.00e+00 0.0 0.0e+00 0.0e+00 0.0e+00  0  0  0  0  0   0  0  0  0  0     0

--- Event Stage 7: qetsc_eigvals


--- Event Stage 8: qetsc_density

VecCopy             3456 1.0 6.0813e-03 1.5 0.00e+00 0.0 0.0e+00 0.0e+00 0.0e+00  0  0  0  0  0   0  0  0  0  0     0
VecSet                 1 1.0 7.8369e-06 1.7 0.00e+00 0.0 0.0e+00 0.0e+00 0.0e+00  0  0  0  0  0   0  0  0  0  0     0
VecScatterBegin     6912 1.0 9.6112e-01 1.4 0.00e+00 0.0 3.4e+06 2.4e+01 3.5e+03  1  0 23  1 45  17  0 60 77 50     0
VecScatterEnd       3456 1.0 1.1178e+00309.2 0.00e+00 0.0 0.0e+00 0.0e+00 0.0e+00  1  0  0  0  0  24  0  0  0  0     0
BVCopy              3456 1.0 2.3137e-02 1.2 0.00e+00 0.0 0.0e+00 0.0e+00 0.0e+00  0  0  0  0  0   1  0  0  0  0     0

--- Event Stage 9: Unknown


--- Event Stage 10: siesta_misc


--- Event Stage 11: siesta_move


--- Event Stage 12: siesta_analysis


--- Event Stage 13: qetsc_clean


--- Event Stage 14: siesta_end

------------------------------------------------------------------------------------------------------------------------

Memory usage is given in bytes:

Object Type          Creations   Destructions     Memory  Descendants' Mem.
Reports information only for process 0.

--- Event Stage 0: Main Stage


--- Event Stage 1: siesta_init


--- Event Stage 2: siesta_forces


--- Event Stage 3: siesta_solve


--- Event Stage 4: siesta2qetsc

              Matrix     9              0            0     0.
              Vector    19              1         1648     0.
      Vector Scatter     4              0            0     0.
           Index Set     4              4         8032     0.

--- Event Stage 5: qetsc_setup_eps

              Matrix    31             15      1786812     0.
              Vector   107             63       156880     0.
      Vector Scatter    18              9         9648     0.
           Index Set    61             54        77664     0.
          EPS Solver     2              0            0     0.
  Spectral Transform     2              0            0     0.
       Krylov Solver     2              0            0     0.
      Preconditioner     2              0            0     0.
       Basis Vectors     7              4         4224     0.
         PetscRandom     1              0            0     0.
              Region     2              0            0     0.
       Direct Solver     2              0            0     0.

--- Event Stage 6: qetsc_solve_eps

              Matrix    27             27      3266100     0.
              Vector   117            117       293400     0.
      Vector Scatter    18             18        19296     0.
           Index Set    36             36        67968     0.
       Basis Vectors     9              9         9504     0.

--- Event Stage 7: qetsc_eigvals


--- Event Stage 8: qetsc_density

              Vector    10              9        28080     0.
      Vector Scatter   577            576       617688     0.
           Index Set  1153           1153       917776     0.

--- Event Stage 9: Unknown


--- Event Stage 10: siesta_misc


--- Event Stage 11: siesta_move

              Matrix     0             25      2971396     0.
              Vector     0             63       328880     0.
      Vector Scatter     0             14        14176     0.
           Index Set     0              7         5488     0.
          EPS Solver     0              2        25144     0.
  Spectral Transform     0              2         1632     0.
       Krylov Solver     0              2         2336     0.
      Preconditioner     0              2         1952     0.
       Basis Vectors     0              3         3168     0.
         PetscRandom     0              1          638     0.
              Region     0              2         1312     0.
       Direct Solver     0              2       109992     0.

--- Event Stage 12: siesta_analysis


--- Event Stage 13: qetsc_clean


--- Event Stage 14: siesta_end

              Viewer     1              0            0     0.
========================================================================================================================
Average time to get PetscTime(): 1.24437e-07
Average time for MPI_Barrier(): 3.4225e-06
Average time for zero size MPI_Send(): 1.14351e-05
#PETSc Option Table entries:
-eps_interval -2.3,0.
-eps_krylovschur_detect_zeros 0
-eps_krylovschur_partitions 64
-ioptbin 7
-ioptdensity 0
-ioptinertia 1
-ioptleft 2
-ioptwrite 1
-log_view
-mat_mumps_cntl_3 1e-12
-mat_mumps_icntl_13 1
-mat_mumps_icntl_23 0
-mat_mumps_icntl_24 1
-mat_mumps_icntl_7 5
-mat_type mpisbaij
#End of PETSc Option Table entries
Compiled with FORTRAN kernels
Compiled with full precision matrices (default)
sizeof(short) 2 sizeof(int) 4 sizeof(long) 8 sizeof(void*) 8 sizeof(PetscScalar) 8 sizeof(PetscInt) 4
Configure options: --known-has-attribute-aligned=1 --download-chaco=0 --download-cmake=0 --download-hypre=0 --download-metis=1 --download-mumps=1 --download-parmetis=1 --download-plapack=0 --download-prometheus=0 --download-ptscotch=1 --download-spai=0 --download-spooles=0 --download-superlu=0 --download-superlu_dist=0 --download-triangle=0 --known-bits-per-byte=8 --known-level1-dcache-assoc=0 --known-level1-dcache-linesize=32 --known-level1-dcache-size=32768 --known-memcmp-ok=1 --known-mpi-c-double-complex=1 --known-mpi-int64_t=1 --known-mpi-long-double=1 --known-mpi-shared-libraries=0 --known-sdot-returns-double=0 --known-sizeof-MPI_Comm=4 --known-sizeof-MPI_Fint=4 --known-sizeof-char=1 --known-sizeof-double=8 --known-sizeof-float=4 --known-sizeof-int=4 --known-sizeof-long-long=8 --known-sizeof-long=8 --known-sizeof-short=2 --known-sizeof-size_t=8 --known-sizeof-void-p=8 --known-snrm2-returns-double=0 --with-batch=1 --with-blacs-include=/soft/libraries/alcf/current/xl/SCALAPACK/ --with-blacs-lib=/soft/libraries/alcf/current/xl/SCALAPACK/lib/libscalapack.a --with-blas-lapack-lib="-L/soft/libraries/alcf/current/xl/LAPACK/lib -llapack -L/soft/libraries/alcf/current/xl/BLAS/lib -lblas" --with-cc=mpixlc_r --with-clib-autodetect=0 --with-cxx=mpixlcxx_r --with-cxxlib-autodetect=0 --with-debugging=0 --with-fc="mpixlf77_r -qnosave" --with-fortran-kernels=1 --with-fortranlib-autodetect=0 --with-is-color-value-type=short --with-scalapack-include=/soft/libraries/alcf/current/xl/SCALAPACK/ --with-scalapack-lib=/soft/libraries/alcf/current/xl/SCALAPACK/lib/libscalapack.a --with-shared-libraries=0 --with-x=0 -COPTFLAGS=" -g -O3 -qhot=level=0 -qsimd=auto -qmaxmem=-1 -qstrict -qstrict_induction" -CXXOPTFLAGS="  -g -O3 -qhot=level=0 -qsimd=auto -qmaxmem=-1 -qstrict -qstrict_induction" -FOPTFLAGS=" -g -O3 -qhot=level=0 -qsimd=auto -qmaxmem=-1 -qstrict -qstrict_induction" LIBS="-lmpichcxx-gcc -lmpichf77-gcc -L/soft/compilers/ibmcmp-feb2015/vacpp/bg/12.1/bglib64 -libmc++ -L/soft/compilers/ibmcmp-feb2015/xlf/bg/14.1/bglib64 -lxlf90_r -lxlomp_ser -lxlfmath" PETSC_ARCH=arch-xl
-----------------------------------------
Libraries compiled on Sat Aug 20 04:19:47 2016 on vestalac2 
Machine characteristics: Linux-2.6.32-573.18.1.el6.ppc64-ppc64-with-redhat-6.7-Santiago
Using PETSc directory: /home/keceli/scratch2/petsc
Using PETSc arch: arch-xl
-----------------------------------------

Using C compiler: mpixlc_r   -g -O3 -qhot=level=0 -qsimd=auto -qmaxmem=-1 -qstrict -qstrict_induction  ${COPTFLAGS} ${CFLAGS}
Using Fortran compiler: mpixlf77_r -qnosave  -g -O3 -qhot=level=0 -qsimd=auto -qmaxmem=-1 -qstrict -qstrict_induction   ${FOPTFLAGS} ${FFLAGS} 
-----------------------------------------

Using include paths: -I/home/keceli/scratch2/petsc/arch-xl/include -I/home/keceli/scratch2/petsc/include -I/home/keceli/scratch2/petsc/include -I/home/keceli/scratch2/petsc/arch-xl/include -I/bgsys/drivers/V1R2M4/ppc64/comm/include -I/bgsys/drivers/V1R2M4/ppc64/comm/lib/xl -I/bgsys/drivers/V1R2M4/ppc64 -I/bgsys/drivers/V1R2M4/ppc64/comm/sys/include -I/bgsys/drivers/V1R2M4/ppc64/spi/include -I/bgsys/drivers/V1R2M4/ppc64/spi/include/kernel/cnk
-----------------------------------------

Using C linker: mpixlc_r
Using Fortran linker: mpixlf77_r -qnosave
Using libraries: -Wl,-rpath,/home/keceli/scratch2/petsc/arch-xl/lib -L/home/keceli/scratch2/petsc/arch-xl/lib -lpetsc -Wl,-rpath,/home/keceli/scratch2/petsc/arch-xl/lib -L/home/keceli/scratch2/petsc/arch-xl/lib -lcmumps -ldmumps -lsmumps -lzmumps -lmumps_common -lpord -Wl,-rpath,/soft/libraries/alcf/current/xl/SCALAPACK/lib -L/soft/libraries/alcf/current/xl/SCALAPACK/lib -lscalapack -L/soft/libraries/alcf/current/xl/LAPACK/lib -llapack -L/soft/libraries/alcf/current/xl/BLAS/lib -lblas -lparmetis -lmetis -lptesmumps -lptscotch -lptscotcherr -lscotch -lscotcherr -lrt -lm -lpthread -ldl -lmpichcxx-gcc -lmpichf77-gcc -L/soft/compilers/ibmcmp-feb2015/vacpp/bg/12.1/bglib64 -libmc++ -L/soft/compilers/ibmcmp-feb2015/xlf/bg/14.1/bglib64 -lxlf90_r -lxlomp_ser -lxlfmath
-----------------------------------------

