s.runSiesta: Submission time = 34s58m16h
s.runSiesta: Job name = ga4_qetsc_s16_p16
s.runSiesta: Number of ranks = 16
s.runSiesta: Number of slices = 16
34s58m16h
-ioptbin 3
-ioptinertia 1
-ioptleft 0
-isglobal 1
-roptleft -100
-roptright 10
-writeeigs 1
-roptbuffer 0.1
-roptdiff 0.1
# A chain of identical atoms (instead of an xyz file) can be specified with the following options
#-N 10 # Number of atoms
#-Z 8 # Atomic number
#-c 32 # Maximum number of interactions of an atom

# A petsc matrix (binary) can be given
#-method file
#-fA '/Volumes/s/matrices/petscbinary/graphene_xxs_A'
#-fB '/Volumes/s/matrices/petscbinary/graphene_xxs_B'
#-scfthresh 1.e-3

#PETSc options
-mat_type mpisbaij
#-mat_block_size 46
-log_view
-memory_view
-malloc_log

#-mat_mumps_icntl_13 1 #turn off scaLAPACK for matrix inertia
#-mat_mumps_icntl_24 1 #null pivot row detection for matrix inertia
#-mat_mumps_icntl_23 0
-mat_mumps_icntl_28 1
#-mat_mumps_icntl_28 2
#-mat_mumps_icntl_29 1 # ptscotch
#-mat_mumps_icntl_29 2 # parmetis
#-malloc_info
#-mat_view ::ascii_info
#-mat_getrow_uppertriangular 1
#-st_type sinvert
#-st_ksp_type preonly
#-st_pc_type cholesky
#-st_pc_factor_mat_solver_package mumps
-st_pc_factor_mat_solver_package mkl_pardiso
#SLEPc options
#-eps_view
#-eps_view_values
#-eps_krylovschur_partitions 1
#-eps_krylovschur_nev 120
-eps_interval -100,10
#-eps_tol  1.e-8
-eps_krylovschur_detect_zeros 0
#-eps_purify 1
SystemName          Glu-Ala
SystemLabel         GA
NumberOfAtoms       106
NumberOfSpecies     4
DM.MixingWeight 0.25
DM.NumberPulay 3

SolutionMethod  slepc1 #slepc0 for the older method
#SolutionMethod diagon
#BlockSize 182
#BlockSize 273
WriteDM .false.
WriteDM.NetCDF .false.
WriteDMHS.NetCDF .false.
LongOutput .false.
#MaxSCFIterations 1

%block ChemicalSpeciesLabel
 1  6  C
 2  1  H
 3  7  N
 4  8  O
%endblock ChemicalSpeciesLabel

PAO.BasisType split
PAO.BasisSize DZP

LatticeConstant 1.0 Ang
%block LatticeVectors < 0004_box.data

%block kgrid_Monkhorst_Pack
1 0 0 0.0
0 1 0 0.0
0 0 1 0.0
%endblock kgrid_Monkhorst_Pack

AtomicCoordinatesFormat NotScaledCartesianAng
%block AtomicCoordinatesAndAtomicSpecies < 0004_atoms.data
Siesta Version: siesta-trunk-492
Architecture  : x86_64-unknown-linux-gnu--unknown
Compiler flags: mpif90 -Wimplicit-interface -fPIC  -fmax-errors=1 -O3 -march=native -ffast-maath -funroll-loops -I/home/keceli/lib/petsc/include -I/home/keceli/lib/petsc/arch-gccopt/include -I/home/keceli/lib/slepc/arch-gccopt/include -I/home/keceli/lib/slepc/include -I/soft/mkl/11.1.0.080/mkl/include -I/blues/gpfs/home/software/spack/opt/spack/linux-x86_64/gcc-5.3.0/mpich-3.2-wraqufukmp7yzyl6a644pnmda7wkg7w7/include
PP flags      : -DGFORTRAN -DMPI -DMPI_TIMING -DFC_HAVE_FLUSH -DFC_HAVE_ABORT 
PARALLEL version

* Running on   16 nodes in parallel
>> Start of run:  27-SEP-2016  16:58:36

                           ***********************       
                           *  WELCOME TO SIESTA  *       
                           ***********************       
WARNING: Siesta is reading its input from file INPUT_DEBUG

reinit: -----------------------------------------------------------------------
reinit: System Name: Glu-Ala
reinit: -----------------------------------------------------------------------
reinit: System Label: GA                                                          
reinit: -----------------------------------------------------------------------

initatom: Reading input for the pseudopotentials and atomic orbitals ----------
Species number:   1 Atomic number:    6 Label: C
Species number:   2 Atomic number:    1 Label: H
Species number:   3 Atomic number:    7 Label: N
Species number:   4 Atomic number:    8 Label: O

Ground state valence configuration:   2s02  2p02
Reading pseudopotential information in formatted form from C.psf

Valence configuration for pseudopotential generation:
2s( 2.00) rc: 1.54
2p( 2.00) rc: 1.54
3d( 0.00) rc: 1.54
4f( 0.00) rc: 1.54
Ground state valence configuration:   1s01
Reading pseudopotential information in formatted form from H.psf

Valence configuration for pseudopotential generation:
1s( 1.00) rc: 1.31
2p( 0.00) rc: 1.31
3d( 0.00) rc: 0.37
4f( 0.00) rc: 1.31
Ground state valence configuration:   2s02  2p03
Reading pseudopotential information in formatted form from N.psf

Valence configuration for pseudopotential generation:
2s( 2.00) rc: 1.48
2p( 3.00) rc: 1.48
3d( 0.00) rc: 1.48
4f( 0.00) rc: 1.48
Ground state valence configuration:   2s02  2p04
Reading pseudopotential information in formatted form from O.psf

Valence configuration for pseudopotential generation:
2s( 2.00) rc: 1.47
2p( 4.00) rc: 1.47
3d( 0.00) rc: 1.47
4f( 0.00) rc: 1.47
For C, standard SIESTA heuristics set lmxkb to 3
 (one more than the basis l, including polarization orbitals).
Use PS.lmax or PS.KBprojectors blocks to override.
For H, standard SIESTA heuristics set lmxkb to 2
 (one more than the basis l, including polarization orbitals).
Use PS.lmax or PS.KBprojectors blocks to override.
For N, standard SIESTA heuristics set lmxkb to 3
 (one more than the basis l, including polarization orbitals).
Use PS.lmax or PS.KBprojectors blocks to override.
For O, standard SIESTA heuristics set lmxkb to 3
 (one more than the basis l, including polarization orbitals).
Use PS.lmax or PS.KBprojectors blocks to override.

<basis_specs>
===============================================================================
C                    Z=   6    Mass=  12.010        Charge= 0.17977+309
Lmxo=1 Lmxkb= 3    BasisType=split      Semic=F
L=0  Nsemic=0  Cnfigmx=2
          n=1  nzeta=2  polorb=0
            splnorm:   0.15000    
               vcte:    0.0000    
               rinn:    0.0000    
               qcoe:    0.0000    
               qyuk:    0.0000    
               qwid:   0.10000E-01
                rcs:    0.0000      0.0000    
            lambdas:    1.0000      1.0000    
L=1  Nsemic=0  Cnfigmx=2
          n=1  nzeta=2  polorb=1
            splnorm:   0.15000    
               vcte:    0.0000    
               rinn:    0.0000    
               qcoe:    0.0000    
               qyuk:    0.0000    
               qwid:   0.10000E-01
                rcs:    0.0000      0.0000    
            lambdas:    1.0000      1.0000    
-------------------------------------------------------------------------------
L=0  Nkbl=1  erefs: 0.17977+309
L=1  Nkbl=1  erefs: 0.17977+309
L=2  Nkbl=1  erefs: 0.17977+309
L=3  Nkbl=1  erefs: 0.17977+309
===============================================================================
</basis_specs>

atom: Called for C                     (Z =   6)

read_vps: Pseudopotential generation method:
read_vps: ATM3      Troullier-Martins                       
Total valence charge:    4.00000

xc_check: Exchange-correlation functional:
xc_check: Ceperley-Alder
V l=0 = -2*Zval/r beyond r=  1.5227
V l=1 = -2*Zval/r beyond r=  1.5227
V l=2 = -2*Zval/r beyond r=  1.5227
V l=3 = -2*Zval/r beyond r=  1.5038
All V_l potentials equal beyond r=  1.5227
This should be close to max(r_c) in ps generation
All pots = -2*Zval/r beyond r=  1.5227

VLOCAL1: 99.0% of the norm of Vloc inside     18.722 Ry
VLOCAL1: 99.9% of the norm of Vloc inside     42.668 Ry
atom: Maximum radius for 4*pi*r*r*local-pseudopot. charge    1.83678
atom: Maximum radius for r*vlocal+2*Zval:    1.58088
GHOST: No ghost state for L =  0
GHOST: No ghost state for L =  1
GHOST: No ghost state for L =  2
GHOST: No ghost state for L =  3

KBgen: Kleinman-Bylander projectors: 
   l= 0   rc=  1.747182   el= -1.001948   Ekb=  4.950286   kbcos=  0.319819
   l= 1   rc=  1.747182   el= -0.398598   Ekb= -4.108613   kbcos= -0.367053
   l= 2   rc=  1.930978   el=  0.002326   Ekb= -1.042946   kbcos= -0.009366
   l= 3   rc=  2.055542   el=  0.003420   Ekb= -0.408633   kbcos= -0.001262

KBgen: Total number of  Kleinman-Bylander projectors:   16
atom: -------------------------------------------------------------------------

atom: SANKEY-TYPE ORBITALS:
atom: Selected multiple-zeta basis: split     

SPLIT: Orbitals with angular momentum L= 0

SPLIT: Basis orbitals for state 2s

SPLIT: PAO cut-off radius determined from an
SPLIT: energy shift=  0.020000 Ry

   izeta = 1
                 lambda =    1.000000
                     rc =    4.191849
                 energy =   -0.983897
                kinetic =    0.880927
    potential(screened) =   -1.864824
       potential(ionic) =   -5.475687

   izeta = 2
                 rmatch =    3.431921
              splitnorm =    0.150000
                 energy =   -0.853083
                kinetic =    1.298222
    potential(screened) =   -2.151305
       potential(ionic) =   -5.995890

SPLIT: Orbitals with angular momentum L= 1

SPLIT: Basis orbitals for state 2p

SPLIT: PAO cut-off radius determined from an
SPLIT: energy shift=  0.020000 Ry

   izeta = 1
                 lambda =    1.000000
                     rc =    4.870301
                 energy =   -0.379093
                kinetic =    2.540023
    potential(screened) =   -2.919116
       potential(ionic) =   -6.427960

   izeta = 2
                 rmatch =    3.475094
              splitnorm =    0.150000
                 energy =   -0.215057
                kinetic =    3.814571
    potential(screened) =   -4.029628
       potential(ionic) =   -7.920250

POLgen: Perturbative polarization orbital with L=  2

POLgen: Polarization orbital for state 2p

   izeta = 1
                     rc =    4.870301
                 energy =    1.280996
                kinetic =    2.631310
    potential(screened) =   -1.350314
       potential(ionic) =   -4.295640
atom: Total number of Sankey-type orbitals: 13

atm_pop: Valence configuration (for local Pseudopot. screening):
 2s( 2.00)                                                            
 2p( 2.00)                                                            
Vna: chval, zval:    4.00000   4.00000

Vna:  Cut-off radius for the neutral-atom potential:   4.870301

atom: _________________________________________________________________________

<basis_specs>
===============================================================================
H                    Z=   1    Mass=  1.0100        Charge= 0.17977+309
Lmxo=0 Lmxkb= 2    BasisType=split      Semic=F
L=0  Nsemic=0  Cnfigmx=1
          n=1  nzeta=2  polorb=1
            splnorm:   0.15000    
               vcte:    0.0000    
               rinn:    0.0000    
               qcoe:    0.0000    
               qyuk:    0.0000    
               qwid:   0.10000E-01
                rcs:    0.0000      0.0000    
            lambdas:    1.0000      1.0000    
-------------------------------------------------------------------------------
L=0  Nkbl=1  erefs: 0.17977+309
L=1  Nkbl=1  erefs: 0.17977+309
L=2  Nkbl=1  erefs: 0.17977+309
===============================================================================
</basis_specs>

atom: Called for H                     (Z =   1)

read_vps: Pseudopotential generation method:
read_vps: ATM3      Troullier-Martins                       
Total valence charge:    1.00000

xc_check: Exchange-correlation functional:
xc_check: Ceperley-Alder
V l=0 = -2*Zval/r beyond r=  1.2977
V l=1 = -2*Zval/r beyond r=  1.2815
V l=2 = -2*Zval/r beyond r=  1.1307
All V_l potentials equal beyond r=  1.2977
This should be close to max(r_c) in ps generation
All pots = -2*Zval/r beyond r=  1.2977

VLOCAL1: 99.0% of the norm of Vloc inside     25.776 Ry
VLOCAL1: 99.9% of the norm of Vloc inside     58.745 Ry
atom: Maximum radius for 4*pi*r*r*local-pseudopot. charge    1.52711
atom: Maximum radius for r*vlocal+2*Zval:    1.28155
GHOST: No ghost state for L =  0
GHOST: No ghost state for L =  1
GHOST: No ghost state for L =  2

KBgen: Kleinman-Bylander projectors: 
   l= 0   rc=  1.434438   el= -0.467325   Ekb= -1.940326   kbcos= -0.353040
   l= 1   rc=  1.508111   el=  0.001430   Ekb= -0.480826   kbcos= -0.024144
   l= 2   rc=  1.527112   el=  0.002365   Ekb= -0.479392   kbcos= -0.001656

KBgen: Total number of  Kleinman-Bylander projectors:    9
atom: -------------------------------------------------------------------------

atom: SANKEY-TYPE ORBITALS:
atom: Selected multiple-zeta basis: split     

SPLIT: Orbitals with angular momentum L= 0

SPLIT: Basis orbitals for state 1s

SPLIT: PAO cut-off radius determined from an
SPLIT: energy shift=  0.020000 Ry

   izeta = 1
                 lambda =    1.000000
                     rc =    4.828263
                 energy =   -0.449375
                kinetic =    0.925762
    potential(screened) =   -1.375137
       potential(ionic) =   -1.911235

   izeta = 2
                 rmatch =    3.854947
              splitnorm =    0.150000
                 energy =   -0.336149
                kinetic =    1.498089
    potential(screened) =   -1.834238
       potential(ionic) =   -2.406110

POLgen: Perturbative polarization orbital with L=  1

POLgen: Polarization orbital for state 1s

   izeta = 1
                     rc =    4.828263
                 energy =    0.707053
                kinetic =    1.398668
    potential(screened) =   -0.691614
       potential(ionic) =   -1.171973
atom: Total number of Sankey-type orbitals:  5

atm_pop: Valence configuration (for local Pseudopot. screening):
 1s( 1.00)                                                            
Vna: chval, zval:    1.00000   1.00000

Vna:  Cut-off radius for the neutral-atom potential:   4.828263

atom: _________________________________________________________________________

<basis_specs>
===============================================================================
N                    Z=   7    Mass=  14.010        Charge= 0.17977+309
Lmxo=1 Lmxkb= 3    BasisType=split      Semic=F
L=0  Nsemic=0  Cnfigmx=2
          n=1  nzeta=2  polorb=0
            splnorm:   0.15000    
               vcte:    0.0000    
               rinn:    0.0000    
               qcoe:    0.0000    
               qyuk:    0.0000    
               qwid:   0.10000E-01
                rcs:    0.0000      0.0000    
            lambdas:    1.0000      1.0000    
L=1  Nsemic=0  Cnfigmx=2
          n=1  nzeta=2  polorb=1
            splnorm:   0.15000    
               vcte:    0.0000    
               rinn:    0.0000    
               qcoe:    0.0000    
               qyuk:    0.0000    
               qwid:   0.10000E-01
                rcs:    0.0000      0.0000    
            lambdas:    1.0000      1.0000    
-------------------------------------------------------------------------------
L=0  Nkbl=1  erefs: 0.17977+309
L=1  Nkbl=1  erefs: 0.17977+309
L=2  Nkbl=1  erefs: 0.17977+309
L=3  Nkbl=1  erefs: 0.17977+309
===============================================================================
</basis_specs>

atom: Called for N                     (Z =   7)

read_vps: Pseudopotential generation method:
read_vps: ATM3      Troullier-Martins                       
Total valence charge:    5.00000

xc_check: Exchange-correlation functional:
xc_check: Ceperley-Alder
V l=0 = -2*Zval/r beyond r=  1.4606
V l=1 = -2*Zval/r beyond r=  1.4606
V l=2 = -2*Zval/r beyond r=  1.4606
V l=3 = -2*Zval/r beyond r=  1.4606
All V_l potentials equal beyond r=  1.4606
This should be close to max(r_c) in ps generation
All pots = -2*Zval/r beyond r=  1.4606

VLOCAL1: 99.0% of the norm of Vloc inside     20.347 Ry
VLOCAL1: 99.9% of the norm of Vloc inside     46.372 Ry
atom: Maximum radius for 4*pi*r*r*local-pseudopot. charge    1.76189
atom: Maximum radius for r*vlocal+2*Zval:    1.53550
GHOST: No ghost state for L =  0
GHOST: No ghost state for L =  1
GHOST: No ghost state for L =  2
GHOST: No ghost state for L =  3

KBgen: Kleinman-Bylander projectors: 
   l= 0   rc=  1.634559   el= -1.352239   Ekb=  4.901185   kbcos=  0.337501
   l= 1   rc=  1.614250   el= -0.532623   Ekb= -5.544141   kbcos= -0.433040
   l= 2   rc=  1.740002   el=  0.002346   Ekb= -1.331777   kbcos= -0.007563
   l= 3   rc=  1.806505   el=  0.003449   Ekb= -0.515466   kbcos= -0.000994

KBgen: Total number of  Kleinman-Bylander projectors:   16
atom: -------------------------------------------------------------------------

atom: SANKEY-TYPE ORBITALS:
atom: Selected multiple-zeta basis: split     

SPLIT: Orbitals with angular momentum L= 0

SPLIT: Basis orbitals for state 2s

SPLIT: PAO cut-off radius determined from an
SPLIT: energy shift=  0.020000 Ry

   izeta = 1
                 lambda =    1.000000
                     rc =    3.683980
                 energy =   -1.333780
                kinetic =    1.203249
    potential(screened) =   -2.537029
       potential(ionic) =   -8.126274

   izeta = 2
                 rmatch =    2.905100
              splitnorm =    0.150000
                 energy =   -1.138702
                kinetic =    1.810192
    potential(screened) =   -2.948894
       potential(ionic) =   -8.945013

SPLIT: Orbitals with angular momentum L= 1

SPLIT: Basis orbitals for state 2p

SPLIT: PAO cut-off radius determined from an
SPLIT: energy shift=  0.020000 Ry

   izeta = 1
                 lambda =    1.000000
                     rc =    4.280232
                 energy =   -0.512466
                kinetic =    3.598849
    potential(screened) =   -4.111315
       potential(ionic) =   -9.550563

   izeta = 2
                 rmatch =    2.941647
              splitnorm =    0.150000
                 energy =   -0.292244
                kinetic =    5.357522
    potential(screened) =   -5.649767
       potential(ionic) =  -11.693436

POLgen: Perturbative polarization orbital with L=  2

POLgen: Polarization orbital for state 2p

   izeta = 1
                     rc =    4.280232
                 energy =    1.826084
                kinetic =    3.687342
    potential(screened) =   -1.861257
       potential(ionic) =   -6.363951
atom: Total number of Sankey-type orbitals: 13

atm_pop: Valence configuration (for local Pseudopot. screening):
 2s( 2.00)                                                            
 2p( 3.00)                                                            
Vna: chval, zval:    5.00000   5.00000

Vna:  Cut-off radius for the neutral-atom potential:   4.280232

atom: _________________________________________________________________________

<basis_specs>
===============================================================================
O                    Z=   8    Mass=  16.000        Charge= 0.17977+309
Lmxo=1 Lmxkb= 3    BasisType=split      Semic=F
L=0  Nsemic=0  Cnfigmx=2
          n=1  nzeta=2  polorb=0
            splnorm:   0.15000    
               vcte:    0.0000    
               rinn:    0.0000    
               qcoe:    0.0000    
               qyuk:    0.0000    
               qwid:   0.10000E-01
                rcs:    0.0000      0.0000    
            lambdas:    1.0000      1.0000    
L=1  Nsemic=0  Cnfigmx=2
          n=1  nzeta=2  polorb=1
            splnorm:   0.15000    
               vcte:    0.0000    
               rinn:    0.0000    
               qcoe:    0.0000    
               qyuk:    0.0000    
               qwid:   0.10000E-01
                rcs:    0.0000      0.0000    
            lambdas:    1.0000      1.0000    
-------------------------------------------------------------------------------
L=0  Nkbl=1  erefs: 0.17977+309
L=1  Nkbl=1  erefs: 0.17977+309
L=2  Nkbl=1  erefs: 0.17977+309
L=3  Nkbl=1  erefs: 0.17977+309
===============================================================================
</basis_specs>

atom: Called for O                     (Z =   8)

read_vps: Pseudopotential generation method:
read_vps: ATM3      Troullier-Martins                       
Total valence charge:    6.00000

xc_check: Exchange-correlation functional:
xc_check: Ceperley-Alder
V l=0 = -2*Zval/r beyond r=  1.4482
V l=1 = -2*Zval/r beyond r=  1.4482
V l=2 = -2*Zval/r beyond r=  1.4482
V l=3 = -2*Zval/r beyond r=  1.4482
All V_l potentials equal beyond r=  1.4482
This should be close to max(r_c) in ps generation
All pots = -2*Zval/r beyond r=  1.4482

VLOCAL1: 99.0% of the norm of Vloc inside     20.696 Ry
VLOCAL1: 99.9% of the norm of Vloc inside     47.167 Ry
atom: Maximum radius for 4*pi*r*r*local-pseudopot. charge    1.74697
atom: Maximum radius for r*vlocal+2*Zval:    1.52250
GHOST: No ghost state for L =  0
GHOST: No ghost state for L =  1
GHOST: No ghost state for L =  2
GHOST: No ghost state for L =  3

KBgen: Kleinman-Bylander projectors: 
   l= 0   rc=  1.620715   el= -1.742414   Ekb=  4.456556   kbcos=  0.290194
   l= 1   rc=  1.600578   el= -0.676589   Ekb= -7.144994   kbcos= -0.499132
   l= 2   rc=  1.703827   el=  0.002386   Ekb= -1.602359   kbcos= -0.006666
   l= 3   rc=  1.746967   el=  0.003508   Ekb= -0.610601   kbcos= -0.000909

KBgen: Total number of  Kleinman-Bylander projectors:   16
atom: -------------------------------------------------------------------------

atom: SANKEY-TYPE ORBITALS:
atom: Selected multiple-zeta basis: split     

SPLIT: Orbitals with angular momentum L= 0

SPLIT: Basis orbitals for state 2s

SPLIT: PAO cut-off radius determined from an
SPLIT: energy shift=  0.020000 Ry

   izeta = 1
                 lambda =    1.000000
                     rc =    3.305093
                 energy =   -1.723753
                kinetic =    1.583904
    potential(screened) =   -3.307656
       potential(ionic) =  -11.288993

   izeta = 2
                 rmatch =    2.510382
              splitnorm =    0.150000
                 energy =   -1.476627
                kinetic =    2.379421
    potential(screened) =   -3.856049
       potential(ionic) =  -12.446732

SPLIT: Orbitals with angular momentum L= 1

SPLIT: Basis orbitals for state 2p

SPLIT: PAO cut-off radius determined from an
SPLIT: energy shift=  0.020000 Ry

   izeta = 1
                 lambda =    1.000000
                     rc =    3.937239
                 energy =   -0.658849
                kinetic =    4.693978
    potential(screened) =   -5.352826
       potential(ionic) =  -13.082398

   izeta = 2
                 rmatch =    2.541963
              splitnorm =    0.150000
                 energy =   -0.363305
                kinetic =    7.018769
    potential(screened) =   -7.382074
       potential(ionic) =  -16.005408

POLgen: Perturbative polarization orbital with L=  2

POLgen: Polarization orbital for state 2p

   izeta = 1
                     rc =    3.937239
                 energy =    2.394514
                kinetic =    4.808418
    potential(screened) =   -2.413904
       potential(ionic) =   -8.736781
atom: Total number of Sankey-type orbitals: 13

atm_pop: Valence configuration (for local Pseudopot. screening):
 2s( 2.00)                                                            
 2p( 4.00)                                                            
Vna: chval, zval:    6.00000   6.00000

Vna:  Cut-off radius for the neutral-atom potential:   3.937239

atom: _________________________________________________________________________

prinput: Basis input ----------------------------------------------------------

PAO.BasisType split     

%block ChemicalSpeciesLabel
    1    6 C                       # Species index, atomic number, species label
    2    1 H                       # Species index, atomic number, species label
    3    7 N                       # Species index, atomic number, species label
    4    8 O                       # Species index, atomic number, species label
%endblock ChemicalSpeciesLabel

%block PAO.Basis                 # Define Basis set
C                     2                    # Species label, number of l-shells
 n=2   0   2                         # n, l, Nzeta 
   4.192      3.432   
   1.000      1.000   
 n=2   1   2 P   1                   # n, l, Nzeta, Polarization, NzetaPol
   4.870      3.475   
   1.000      1.000   
H                     1                    # Species label, number of l-shells
 n=1   0   2 P   1                   # n, l, Nzeta, Polarization, NzetaPol
   4.828      3.855   
   1.000      1.000   
N                     2                    # Species label, number of l-shells
 n=2   0   2                         # n, l, Nzeta 
   3.684      2.905   
   1.000      1.000   
 n=2   1   2 P   1                   # n, l, Nzeta, Polarization, NzetaPol
   4.280      2.942   
   1.000      1.000   
O                     2                    # Species label, number of l-shells
 n=2   0   2                         # n, l, Nzeta 
   3.305      2.510   
   1.000      1.000   
 n=2   1   2 P   1                   # n, l, Nzeta, Polarization, NzetaPol
   3.937      2.542   
   1.000      1.000   
%endblock PAO.Basis

prinput: ----------------------------------------------------------------------

coor:   Atomic-coordinates input format  =     Cartesian coordinates
coor:                                          (in Angstroms)

siesta: Atomic coordinates (Bohr) and species
siesta:      2.52135   0.47348   9.52806  3        1
siesta:      3.09950  -1.69349   8.07013  1        2
siesta:      1.08157  -2.09155   6.04207  1        3
siesta:      1.64841  -2.19424   3.80922  4        4
siesta:      2.04656   2.12458   8.68799  2        5
siesta:     -7.64734  -3.36680   5.56690  2        6
siesta:      2.62911   0.19236  11.45595  2        7
siesta:      4.92142  -1.36406   7.11114  2        8
siesta:      3.31485  -4.05141   9.80526  1        9
siesta:      0.81918  -4.57318  11.25377  1       10
siesta:      4.85483  -3.74217  11.17418  2       11
siesta:      3.80306  -5.71923   8.65577  2       12
siesta:     -0.73828  -4.88905   9.90905  2       13
siesta:      0.32528  -2.94225  12.44863  2       14
siesta:      1.10051  -6.86544  12.92020  1       15
siesta:     -0.10444  -8.80287  12.58279  4       16
siesta:      2.75643  -6.66872  14.80265  4       17
siesta:      2.79287  -8.20539  15.72959  2       18
siesta:     -1.23634  -2.30762   6.93809  3       19
siesta:     -3.31855  -2.66794   5.29656  1       20
siesta:     -3.20600  -0.76556   3.12504  1       21
siesta:     -3.19539  -1.47221   0.93004  4       22
siesta:     -6.59865  -1.34547   7.58041  2       23
siesta:     -1.21250   9.24352   7.97968  4       24
siesta:     -1.71462  -2.22050   8.82835  2       25
siesta:     -2.96967  -4.51584   4.39809  2       26
siesta:     -6.17280  -2.98708   6.71266  1       27
siesta:     -6.27817  -4.31370   8.07640  2       28
siesta:     -3.14823   1.61847   3.85668  3       29
siesta:     -3.06035   3.60357   2.06581  1       30
siesta:     -1.02610   3.06477   0.08717  1       31
siesta:     -1.54789   2.98000  -2.15739  4       32
siesta:     -0.78360  10.84739   8.66199  2       33
siesta:      7.68275   1.61079  -0.20911  2       34
siesta:     -3.15720   2.21675   5.71394  2       35
siesta:     -4.90243   3.68196   1.09204  2       36
siesta:     -2.55278   6.16066   3.41506  1       37
siesta:     -0.00775   6.14083   4.87151  1       38
siesta:     -4.10777   6.53874   4.74929  2       39
siesta:     -2.52655   7.69701   2.00785  2       40
siesta:      1.56602   5.76762   3.56092  2       41
siesta:     -0.01731   4.64466   6.31822  2       42
siesta:      0.41689   8.64481   6.16005  1       43
siesta:      2.14368  10.06151   5.58513  4       44
siesta:      1.25514   2.72303   1.03659  3       45
siesta:      3.34146   2.19010  -0.55191  1       46
siesta:      2.65475   0.09102  -2.41458  1       47
siesta:      2.84435   0.41684  -4.68953  4       48
siesta:      6.08865   0.33093   2.04046  2       49
siesta:     -2.21186  -7.99264   3.80585  4       50
siesta:      1.69530   2.79508   2.93671  2       51
siesta:      3.55573   3.89420  -1.73252  2       52
siesta:      6.16801   1.86819   0.91808  1       53
siesta:      6.67177   3.30048   2.06943  2       54
siesta:      1.89142  -2.02415  -1.33495  3       55
siesta:      1.20551  -4.14894  -2.80815  1       56
siesta:     -0.58516  -3.34901  -4.92879  1       57
siesta:     -0.07343  -3.77444  -7.13664  4       58
siesta:     -3.09664  -9.27055   4.70362  2       59
siesta:     -8.46379   0.55039  -5.80510  2       60
siesta:      1.73087  -2.30016   0.59001  2       61
siesta:      2.93507  -4.91986  -3.68101  2       62
siesta:     -0.03559  -6.19759  -1.11124  1       63
siesta:     -2.45103  -5.19849   0.21777  1       64
siesta:      1.34237  -6.80511   0.32863  2       65
siesta:     -0.52668  -7.85773  -2.27059  2       66
siesta:     -3.84825  -4.58631  -1.19881  2       67
siesta:     -1.98765  -3.56511   1.42149  2       68
siesta:     -3.59744  -7.23111   1.85018  1       69
siesta:     -5.67145  -8.14541   1.42366  4       70
siesta:     -2.65532  -2.20384  -4.13806  3       71
siesta:     -4.49543  -1.33303  -5.87465  1       72
siesta:     -3.22280   0.15073  -8.00211  1       73
siesta:     -3.51275  -0.45599 -10.20785  4       74
siesta:     -6.54866   1.63686  -3.70948  2       75
siesta:      3.86776   7.30217  -2.87336  4       76
siesta:     -3.08713  -1.84442  -2.26890  2       77
siesta:     -5.21491  -3.06020  -6.79277  2       78
siesta:     -7.08927   0.03612  -4.58959  1       79
siesta:     -7.99184  -0.98461  -3.25757  2       80
siesta:     -1.85708   2.08712  -7.22272  3       81
siesta:     -0.57552   3.65626  -8.96942  1       82
siesta:      0.88360   2.04123 -10.86839  1       83
siesta:      0.51091   2.24822 -13.13461  4       84
siesta:      5.09841   8.38519  -2.14228  2       85
siesta:      7.23357  -4.10052 -10.81629  2       86
siesta:     -1.61153   2.60079  -5.35637  2       87
siesta:     -2.00041   4.75776 -10.02014  2       88
siesta:      1.22946   5.48521  -7.55033  1       89
siesta:      3.24311   4.03717  -5.98597  1       90
siesta:      0.10323   6.69040  -6.27745  2       91
siesta:      2.18795   6.72315  -8.92514  2       92
siesta:      4.38644   2.82553  -7.23434  2       93
siesta:      2.31929   2.82318  -4.57022  2       94
siesta:      4.95261   5.86892  -4.63214  1       95
siesta:      7.20280   6.05049  -5.10445  4       96
siesta:      2.52135   0.47348  -9.82812  3       97
siesta:      4.00846  -1.16292 -11.33502  1       98
siesta:      2.33986  -2.51752 -13.26584  1       99
siesta:      2.78642  -2.37644 -15.52375  4      100
siesta:      5.09219  -4.23031  -8.66283  2      101
siesta:      0.78085  -3.59612 -12.43174  2      102
siesta:      2.83573   0.29937  -7.90972  2      103
siesta:      5.20617   0.10838 -12.47212  2      104
siesta:      6.08163  -3.01931  -9.75082  1      105
siesta:      7.25469  -2.11601  -8.55132  2      106

siesta: System type = molecule  

initatomlists: Number of atoms, orbitals, and projectors:    106   978  1346

siesta: ******************** Simulation parameters ****************************
siesta:
siesta: The following are some of the parameters of the simulation.
siesta: A complete list of the parameters used, including default values,
siesta: can be found in file out.fdf
siesta:
redata: Non-Collinear-spin run           =     F
redata: SpinPolarized (Up/Down) run      =     F
redata: Number of spin components        =     1
redata: Long output                      =     F
redata: Number of Atomic Species         =        4
redata: Charge density info will appear in .RHO file
redata: Write Mulliken Pop.              =     NO
redata: Mesh Cutoff                      =   100.0000  Ry
redata: Net charge of the system         =     0.0000 |e|
redata: Min. number of SCF Iter          =        0
redata: Max. number of SCF Iter          =       50
redata: Mix DM or H after convergence    =     F
redata: Recompute H after scf cycle      =     F
redata: Performing Pulay mixing using    =     3 iterations
redata: Mix DM in first SCF step ?       =     F
redata: Write Pulay info on disk?        =     F
redata: Discard 1st Pulay DM after  kick =     F
redata: New DM Mixing Weight             =     0.2500
redata: New DM Occupancy tolerance       = 0.000000000001
redata: No kicks to SCF
redata: DM Mixing Weight for Kicks       =     0.5000
redata: DM Tolerance for SCF             =     0.000100
redata: Require (free) Energy convergence in SCF =     F
redata: DM (free)Energy tolerance for SCF =     0.000010 eV
redata: Require Harris convergence for SCF =     F
redata: DM Harris energy tolerance for SCF =     0.000010 eV
redata: Using Saved Data (generic)   =     F
redata: Use continuation files for DM    =     F
redata: Neglect nonoverlap interactions  =     F
redata: Method of Calculation            =     old SLEPc
redata: Fix the spin of the system       =     F
redata: Dynamics option                  =     Single-point calculation
redata: ***********************************************************************
Total number of electrons:   314.000000
Total ionic charge:   314.000000

* ProcessorY, Blocksize:    4  62


* Orbital distribution balance (max,min):    62    48

 Kpoints in:            1 . Kpoints trimmed:            1

siesta: k-grid: Number of k-points =     1
siesta: k-grid: Cutoff (effective) =    15.000 Ang
siesta: k-grid: Supercell and displacements
siesta: k-grid:    1   0   0      0.000
siesta: k-grid:    0   1   0      0.000
siesta: k-grid:    0   0   1      0.000

                     ====================================
                        Single-point calculation
                     ====================================

outcell: Unit cell vectors (Ang):
       30.000000    0.000000    0.000000
        0.000000   30.000000    0.000000
        0.000000    0.000000   46.538549

outcell: Cell vector modules (Ang)   :   30.000000   30.000000   46.538549
outcell: Cell angles (23,13,12) (deg):     90.0000     90.0000     90.0000
outcell: Cell volume (Ang**3)        :  41884.6943
New_DM. Step:     1
Initializing Density Matrix...
New grid distribution:   1
           1       1:   96    1:   24    1:   36
           2       1:   96    1:   24   37:   72
           3       1:   96    1:   24   73:  108
           4       1:   96    1:   24  109:  144
           5       1:   96   25:   48    1:   36
           6       1:   96   25:   48   37:   72
           7       1:   96   25:   48   73:  108
           8       1:   96   25:   48  109:  144
           9       1:   96   49:   72    1:   36
          10       1:   96   49:   72   37:   72
          11       1:   96   49:   72   73:  108
          12       1:   96   49:   72  109:  144
          13       1:   96   73:   96    1:   36
          14       1:   96   73:   96   37:   72
          15       1:   96   73:   96   73:  108
          16       1:   96   73:   96  109:  144

InitMesh: MESH =   192 x   192 x   288 =    10616832
InitMesh: (bp) =    96 x    96 x   144 =     1327104
InitMesh: Mesh cutoff (required, used) =   100.000   105.843 Ry
ExtMesh (bp) on 0 =   132 x    60 x    68 =      538560
New grid distribution:   2
           1       1:   86    1:   85    1:    8
           2       1:   86    1:   85    9:  121
           3       1:   82   86:   96    1:   14
           4      83:   96   86:   96    1:    8
           5       9:   96    1:   11  122:  135
           6       9:   96    1:   11  136:  144
           7       1:    8    1:   11  122:  134
           8      12:   96   12:   96  122:  137
           9       1:   11   12:   96  136:  144
          10      87:   96    1:   85    7:  121
          11       1:    8    1:   11  135:  144
          12      12:   96   12:   96  138:  144
          13      87:   96    1:   85    1:    6
          14       1:   82   86:   96   15:  121
          15      83:   96   86:   96    9:  121
          16       1:   11   12:   96  122:  135
New grid distribution:   3
           1       1:   16    1:   41  134:  144
           2      17:   96    1:   41   32:  133
           3       1:   16    1:   41   32:  133
           4      17:   96    1:   41  134:  144
           5      32:   96    1:   78   11:   31
           6      20:   96   79:   96   12:   31
           7       1:   19   79:   96   16:   31
           8      18:   96   42:   96  134:  144
           9       1:   31    1:   78   11:   31
          10      18:   96   42:   96   32:  133
          11       1:   31    1:   78    1:   10
          12       1:   17   42:   96  131:  144
          13      32:   96    1:   78    1:   10
          14       1:   17   42:   96   32:  130
          15      20:   96   79:   96    1:   11
          16       1:   19   79:   96    1:   15
Setting up quadratic distribution...
ExtMesh (bp) on 0 =   122 x   121 x    40 =      590480
PhiOnMesh: Number of (b)points on node 0 =                58480
PhiOnMesh: nlist on node 0 =               128214
 QETSC: Last update           =16092562029
QETSC: Number of ranks       =          16
QETSC: Number of slices      =          16
QETSC: Number of ranks/slice =           1
QETSC: Number of evals/slice =   9.81
QETSC: Number of req. evals  =         157
QETSC: Number of rows (all)  =         978
QETSC: Number of rows (max)  =          62
QETSC: Number of rows (min)  =          48
QETSC: Number of nonzeros    =      384428
QETSC: Nonzero % (all)       =  40.19
QETSC: Nonzero % (max)       =  50.47
QETSC: Nonzero % (min)       =  28.27
QETSC: Global evecs          =      T
QETSC: Bin type given        =           3
QETSC: Bin buffer            =   0.10
QETSC: Diff thresh           =   0.10
QETSC: Infinity type         =           0
QETSC: Inertia type          =           1
 QETSC: Estimated eigenvalues         =
-3.7500000000000000E+00
-3.7394877675840981E+00
-3.7289755351681957E+00
-3.7184633027522938E+00
-3.7079510703363914E+00
-3.6974388379204894E+00
-3.6869266055045871E+00
-3.6764143730886851E+00
-3.6659021406727827E+00
-3.6553899082568808E+00
-3.6448776758409784E+00
-3.6343654434250765E+00
-3.6238532110091741E+00
-3.6133409785932722E+00
-3.6028287461773703E+00
-3.5923165137614679E+00
-3.5818042813455659E+00
-3.5712920489296636E+00
-3.5607798165137616E+00
-3.5502675840978593E+00
-3.5397553516819573E+00
-3.5292431192660549E+00
-3.5187308868501530E+00
-3.5082186544342506E+00
-3.4977064220183487E+00
-3.4871941896024463E+00
-3.4766819571865444E+00
-3.4661697247706424E+00
-3.4556574923547401E+00
-3.4451452599388377E+00
-3.4346330275229358E+00
-3.4241207951070338E+00
-3.4136085626911314E+00
-3.4030963302752295E+00
-3.3925840978593271E+00
-3.3820718654434252E+00
-3.3715596330275228E+00
-3.3610474006116209E+00
-3.3505351681957185E+00
-3.3400229357798166E+00
-3.3295107033639142E+00
-3.3189984709480123E+00
-3.3084862385321099E+00
-3.2979740061162079E+00
-3.2874617737003060E+00
-3.2769495412844036E+00
-3.2664373088685017E+00
-3.2559250764525993E+00
-3.2454128440366974E+00
-3.2349006116207950E+00
-3.2243883792048931E+00
-3.2138761467889907E+00
-3.2033639143730888E+00
-3.1928516819571864E+00
-3.1823394495412844E+00
-3.1718272171253821E+00
-3.1613149847094801E+00
-3.1508027522935782E+00
-3.1402905198776758E+00
-3.1297782874617734E+00
-3.1192660550458715E+00
-3.1087538226299696E+00
-3.0982415902140672E+00
-3.0877293577981653E+00
-3.0772171253822629E+00
-3.0667048929663610E+00
-3.0561926605504586E+00
-3.0456804281345566E+00
-3.0351681957186543E+00
-3.0246559633027523E+00
-3.0141437308868504E+00
-3.0036314984709480E+00
-2.9931192660550456E+00
-2.9826070336391437E+00
-2.9720948012232418E+00
-2.9615825688073394E+00
-2.9510703363914375E+00
-2.9405581039755351E+00
-2.9300458715596331E+00
-2.9195336391437308E+00
-2.9090214067278288E+00
-2.8985091743119265E+00
-2.8879969418960245E+00
-2.8774847094801226E+00
-2.8669724770642202E+00
-2.8564602446483178E+00
-2.8459480122324159E+00
-2.8354357798165140E+00
-2.8249235474006116E+00
-2.8144113149847096E+00
-2.8038990825688073E+00
-2.7933868501529053E+00
-2.7828746177370030E+00
-2.7723623853211010E+00
-2.7618501529051986E+00
-2.7513379204892967E+00
-2.7408256880733948E+00
-2.7303134556574924E+00
-2.7198012232415900E+00
-2.7092889908256881E+00
-2.6987767584097861E+00
-2.6882645259938838E+00
-2.6777522935779814E+00
-2.6672400611620795E+00
-2.6567278287461775E+00
-2.6462155963302751E+00
-2.6357033639143728E+00
-2.6251911314984708E+00
-2.6146788990825689E+00
-2.6041666666666670E+00
-2.5936544342507646E+00
-2.5831422018348622E+00
-2.5726299694189603E+00
-2.5621177370030583E+00
-2.5516055045871560E+00
-2.5410932721712536E+00
-2.5305810397553516E+00
-2.5200688073394497E+00
-2.5095565749235473E+00
-2.4990443425076450E+00
-2.4885321100917430E+00
-2.4780198776758411E+00
-2.4675076452599392E+00
-2.4569954128440368E+00
-2.4464831804281344E+00
-2.4359709480122325E+00
-2.4254587155963305E+00
-2.4149464831804281E+00
-2.4044342507645258E+00
-2.3939220183486238E+00
-2.3834097859327219E+00
-2.3728975535168195E+00
-2.3623853211009171E+00
-2.3518730886850152E+00
-2.3413608562691133E+00
-2.3308486238532109E+00
-2.3203363914373090E+00
-2.3098241590214066E+00
-2.2993119266055047E+00
-2.2887996941896027E+00
-2.2782874617737003E+00
-2.2677752293577980E+00
-2.2572629969418960E+00
-2.2467507645259941E+00
-2.2362385321100917E+00
-2.2257262996941893E+00
-2.2152140672782874E+00
-2.2047018348623855E+00
-2.1941896024464831E+00
-2.1836773700305807E+00
-2.1731651376146788E+00
-2.1626529051987768E+00
-2.1521406727828749E+00
-2.1416284403669725E+00
-2.1311162079510702E+00
-2.1206039755351682E+00
 1.0000000000000000E+01
 QETSC: Bins             =
-3.7500000000000000E+00
-3.6413735983690114E+00
-3.5327471967380224E+00
-3.4241207951070338E+00
-3.3154943934760448E+00
-3.2068679918450562E+00
-3.0982415902140672E+00
-2.9896151885830786E+00
-2.8809887869520896E+00
-2.7723623853211010E+00
-2.6637359836901124E+00
-2.5551095820591234E+00
-2.4464831804281344E+00
-2.3378567787971458E+00
-2.2292303771661572E+00
-2.1206039755351682E+00
 1.0000000000000000E+01
QETSC: Started iter            1
QETSC: Bin type used         =           3
QETSC: Buffer used           = 0.00000000000E+00
QETSC: EPS interval          =    -3.750,    10.000
QETSC: Inertia type          =           1
 QETSC: Eigenvalues         =
-2.0766281416305885E+00
-2.0740033970774792E+00
-2.0667793177270415E+00
-2.0667528240110862E+00
-2.0656018325595644E+00
-2.0612567352099127E+00
-2.0230992796904186E+00
-2.0114876243602242E+00
-2.0096373140109893E+00
-2.0084269457518640E+00
-1.9940595485675758E+00
-1.9805951787181497E+00
-1.9121777865302081E+00
-1.9121699315062279E+00
-1.9099718915557808E+00
-1.9099287586484830E+00
-1.8310584054103203E+00
-1.8280488146032803E+00
-1.8146844310937529E+00
-1.8054918280648906E+00
-1.7907366567484098E+00
-1.7787538239231293E+00
-1.7727294013842172E+00
-1.7601721232101273E+00
-1.6070034078398221E+00
-1.5938045566950962E+00
-1.5808834059027377E+00
-1.5740539721099673E+00
-1.5615818153129204E+00
-1.5606545001300136E+00
-1.5596569304878092E+00
-1.5588200345158527E+00
-1.4652716961360486E+00
-1.4589548275666719E+00
-1.4522910788108918E+00
-1.4196213825577277E+00
-1.3905329131499489E+00
-1.3865654136049264E+00
-1.3752594520167942E+00
-1.3642963815155957E+00
-1.2896401548028775E+00
-1.2776217344051908E+00
-1.2698588156638047E+00
-1.2643192847798042E+00
-1.2417651237906222E+00
-1.2344383147581963E+00
-1.2102632938547866E+00
-1.2079038463812952E+00
-1.2009952120382152E+00
-1.1949546672188545E+00
-1.1839010162968129E+00
-1.1828717497389807E+00
-1.1793477623519011E+00
-1.1740396268070816E+00
-1.1679293781069684E+00
-1.1447174350051128E+00
-1.1064684939553511E+00
-1.0860467433628234E+00
-1.0822384180421352E+00
-1.0636337236822038E+00
-1.0596591745844530E+00
-1.0549390424981533E+00
-1.0511302685410149E+00
-1.0446661964291546E+00
-1.0326543244512894E+00
-1.0245784667877682E+00
-1.0066099757656108E+00
-1.0034886409904502E+00
-9.9747571610808150E-01
-9.9346662045001988E-01
-9.8892434343205149E-01
-9.8356867956674010E-01
-9.8143027116311798E-01
-9.7936161161834434E-01
-9.7680451818408176E-01
-9.7034040532145793E-01
-9.6796996472259256E-01
-9.6656020473037207E-01
-9.6377361465816991E-01
-9.5791823301804246E-01
-9.5457827941703099E-01
-9.4867031396547330E-01
-9.4832048449577067E-01
-9.4286078568582243E-01
-9.3995232415487528E-01
-9.3821208332939277E-01
-9.3399353910624461E-01
-9.3059244113862838E-01
-9.2934288625820793E-01
-9.2398875675588266E-01
-9.2311224297954420E-01
-9.1891658669651022E-01
-9.0470564041556378E-01
-9.0017432495142713E-01
-8.9802322096014531E-01
-8.9195662406511000E-01
-8.8815479213994319E-01
-8.8736586646986804E-01
-8.8156767991093332E-01
-8.6965574795483858E-01
-8.6479359262336186E-01
-8.6043048400759525E-01
-8.5446164312311212E-01
-8.4896825426862232E-01
-8.4460831832876682E-01
-8.3972795640461284E-01
-8.3647001195543347E-01
-8.3196609188480153E-01
-8.2618134009287580E-01
-8.2127706155971447E-01
-8.1688689236307654E-01
-8.0649540773166484E-01
-8.0479754849654650E-01
-8.0154156001314214E-01
-7.9856336244325121E-01
-7.9180831153475995E-01
-7.8431076370573738E-01
-7.8319470763493004E-01
-7.7679762560811494E-01
-7.7464139005866783E-01
-7.7348722445991747E-01
-7.6704548965503072E-01
-7.6268354825270346E-01
-7.5670531387705364E-01
-7.5443526091253121E-01
-7.5373754711976682E-01
-7.5033952953620109E-01
-7.3835386587503626E-01
-7.3476176939249949E-01
-7.3218838596697400E-01
-7.2354360679517937E-01
-7.1452692367454440E-01
-7.0670370151131512E-01
-6.3660349256746551E-01
-6.3590760335336749E-01
-6.3274033369952476E-01
-6.3262921945813011E-01
-6.1313489709730429E-01
-6.0171794114404942E-01
-5.9719330449617813E-01
-5.9632381347024666E-01
-5.8990046460910928E-01
-5.8634649438187825E-01
-5.7981157085329071E-01
-5.7358646131356572E-01
-5.7246063820602378E-01
-5.7229814980823612E-01
-5.6157252388690326E-01
-5.5560158528062564E-01
-5.4956953465024738E-01
-5.4523611607891553E-01
-5.4131696106429050E-01
-5.2452032914465896E-01
-5.1950340173932918E-01
-5.1166676144239931E-01
-4.8551930538551069E-01
-4.7846978878742052E-01
QETSC: Iter time (min)       =   7.31
QETSC: Iter time (max)       =   9.58
QETSC: Iter time (avg)       =   8.36
QETSC: Num. of conv. evals   =         978
QETSC: Eigenvalue (1)        =-2.07662814163E+00
QETSC: Eigenvalue (nocc)     =-4.78469788787E-01
QETSC: Max differrence       = 2.07662814163E+00
QETSC: Safe iteration        =      F
QETSC: Finished iter            1
 *****************************************************************

siesta: Program's energy decomposition (eV):
siesta: Ebs     =     -4686.544712
siesta: Eions   =     22121.570508
siesta: Ena     =      3376.258261
siesta: Ekin    =      9822.507390
siesta: Enl     =     -1907.847724
siesta: DEna    =        -0.000045
siesta: DUscf   =         0.000000
siesta: DUext   =         0.000000
siesta: Exc     =     -3951.359597
siesta: eta*DQ  =         0.000000
siesta: Emadel  =         0.000000
siesta: Emeta   =         0.000000
siesta: Emolmec =         0.000000
siesta: Ekinion =         0.000000
siesta: Eharris =    -14864.378412
siesta: Etot    =    -14782.012223
siesta: FreeEng =    -14782.012223
timer: Routine,Calls,Time,% =    IterSCF     1      14.050  50.44
 QETSC: Estimated eigenvalues         =
-3.7500000000000000E+00
-3.7392578125000000E+00
-3.7285156250000000E+00
-3.7177734375000000E+00
-3.7070312500000000E+00
-3.6962890625000000E+00
-3.6855468750000000E+00
-3.6748046875000000E+00
-3.6640625000000000E+00
-3.6533203125000000E+00
-3.6425781250000000E+00
-3.6318359375000000E+00
-3.6210937500000000E+00
-3.6103515625000000E+00
-3.5996093750000000E+00
-3.5888671875000000E+00
-3.5781250000000000E+00
-3.5673828125000000E+00
-3.5566406250000000E+00
-3.5458984375000000E+00
-3.5351562500000000E+00
-3.5244140625000000E+00
-3.5136718750000000E+00
-3.5029296875000000E+00
-3.4921875000000000E+00
-3.4814453125000000E+00
-3.4707031250000000E+00
-3.4599609375000000E+00
-3.4492187500000000E+00
-3.4384765625000000E+00
-3.4277343750000000E+00
-3.4169921875000000E+00
-3.4062500000000000E+00
-3.3955078125000000E+00
-3.3847656250000000E+00
-3.3740234375000000E+00
-3.3632812500000000E+00
-3.3525390625000000E+00
-3.3417968750000000E+00
-3.3310546875000000E+00
-3.3203125000000000E+00
-3.3095703125000000E+00
-3.2988281250000000E+00
-3.2880859375000000E+00
-3.2773437500000000E+00
-3.2666015625000000E+00
-3.2558593750000000E+00
-3.2451171875000000E+00
-3.2343750000000000E+00
-3.2236328125000000E+00
-3.2128906250000000E+00
-3.2021484375000000E+00
-3.1914062500000000E+00
-3.1806640625000000E+00
-3.1699218750000000E+00
-3.1591796875000000E+00
-3.1484375000000000E+00
-3.1376953125000000E+00
-3.1269531250000000E+00
-3.1162109375000000E+00
-3.1054687500000000E+00
-3.0947265625000000E+00
-3.0839843750000000E+00
-3.0732421875000000E+00
-3.0625000000000000E+00
-3.0517578125000000E+00
-3.0410156250000000E+00
-3.0302734375000000E+00
-3.0195312500000000E+00
-3.0087890625000000E+00
-2.9980468750000000E+00
-2.9873046875000000E+00
-2.9765625000000000E+00
-2.9658203125000000E+00
-2.9550781250000000E+00
-2.9443359375000000E+00
-2.9335937500000000E+00
-2.9228515625000000E+00
-2.9121093750000000E+00
-2.9013671875000000E+00
-2.8906250000000000E+00
-2.8798828125000000E+00
-2.8691406250000000E+00
-2.8583984375000000E+00
-2.8476562500000000E+00
-2.8369140625000000E+00
-2.8261718750000000E+00
-2.8154296875000000E+00
-2.8046875000000000E+00
-2.7939453125000000E+00
-2.7832031250000000E+00
-2.7724609375000000E+00
-2.7617187500000000E+00
-2.7509765625000000E+00
-2.7402343750000000E+00
-2.7294921875000000E+00
-2.7187500000000000E+00
-2.7080078125000000E+00
-2.6972656250000000E+00
-2.6865234375000000E+00
-2.6757812500000000E+00
-2.6650390625000000E+00
-2.6542968750000000E+00
-2.6435546875000000E+00
-2.6328125000000000E+00
-2.6220703125000000E+00
-2.6113281250000000E+00
-2.6005859375000000E+00
-2.5898437500000000E+00
-2.5791015625000000E+00
-2.5683593750000000E+00
-2.5576171875000000E+00
-2.5468750000000000E+00
-2.5361328125000000E+00
-2.5253906250000000E+00
-2.5146484375000000E+00
-2.5039062500000000E+00
-2.4931640625000000E+00
-2.4824218750000000E+00
-2.4716796875000000E+00
-2.4609375000000000E+00
-2.4501953125000000E+00
-2.4394531250000000E+00
-2.4287109375000000E+00
-2.4179687500000000E+00
-2.4072265625000000E+00
-2.3964843750000000E+00
-2.3857421875000000E+00
-2.3750000000000000E+00
-2.3642578125000000E+00
-2.3535156250000000E+00
-2.3427734375000000E+00
-2.3320312500000000E+00
-2.3212890625000000E+00
-2.3105468750000000E+00
-2.2998046875000000E+00
-2.2890625000000000E+00
-2.2783203125000000E+00
-2.2675781250000000E+00
-2.2568359375000000E+00
-2.2460937500000000E+00
-2.2353515625000000E+00
-2.2246093750000000E+00
-2.2138671875000000E+00
-2.2031250000000000E+00
-2.1923828125000000E+00
-2.1816406250000000E+00
-2.1708984375000000E+00
-2.1601562500000000E+00
-2.1494140625000000E+00
-2.1386718750000000E+00
-2.1279296875000000E+00
-2.1171875000000000E+00
-2.1064453125000000E+00
-2.0957031250000000E+00
-2.0849609375000000E+00
 1.0000000000000000E+01
 QETSC: Bins             =
-3.7500000000000000E+00
-3.6389973958333335E+00
-3.5279947916666665E+00
-3.4169921875000000E+00
-3.3059895833333335E+00
-3.1949869791666665E+00
-3.0839843750000000E+00
-2.9729817708333330E+00
-2.8619791666666665E+00
-2.7509765625000000E+00
-2.6399739583333330E+00
-2.5289713541666665E+00
-2.4179687500000000E+00
-2.3069661458333330E+00
-2.1959635416666665E+00
-2.0849609375000000E+00
 1.0000000000000000E+01
QETSC: Started iter            2
QETSC: Bin type used         =           3
QETSC: Buffer used           = 0.00000000000E+00
QETSC: EPS interval          =    -3.750,    10.000
QETSC: Inertia type          =           1
 QETSC: Eigenvalues         =
-2.1814104299532859E+00
-2.1718794665913932E+00
-2.1329370587415815E+00
-2.1224406078119809E+00
-2.0891239973350570E+00
-2.0582139053259212E+00
-2.0357897950029198E+00
-1.9803486271290507E+00
-1.9607140430424259E+00
-1.9390492428568820E+00
-1.8541630669236919E+00
-1.8234854907107980E+00
-1.7957005788193645E+00
-1.7735843627665724E+00
-1.7283915746232623E+00
-1.7039836258123586E+00
-1.6902266096511058E+00
-1.6560783515505486E+00
-1.6515899875735660E+00
-1.6328767479433413E+00
-1.6087912734258216E+00
-1.5730930074947591E+00
-1.5664095159838758E+00
-1.5455848675011965E+00
-1.5321632873818491E+00
-1.4997611170647522E+00
-1.4866976378459704E+00
-1.4393940238473586E+00
-1.4099077713568737E+00
-1.4051033330155132E+00
-1.3980116629180095E+00
-1.3664592921269063E+00
-1.3630200819754730E+00
-1.3405369034512038E+00
-1.3107668245188959E+00
-1.3079253599759744E+00
-1.2877925532501575E+00
-1.2658735126315450E+00
-1.2531875693807497E+00
-1.2476583492078097E+00
-1.2442685330548386E+00
-1.2277064810400782E+00
-1.1990906974378284E+00
-1.1934060757948395E+00
-1.1783039965129749E+00
-1.1514669745718040E+00
-1.1440161508980784E+00
-1.1315887538090061E+00
-1.1266947847012587E+00
-1.1086792209785217E+00
-1.0888257247493922E+00
-1.0835007977731659E+00
-1.0652076486756350E+00
-1.0579951537599219E+00
-1.0572105928169879E+00
-1.0405182039833853E+00
-1.0298797886207451E+00
-1.0210746234637968E+00
-9.9739210337795925E-01
-9.7972765946013718E-01
-9.7212951253666335E-01
-9.7141364998403912E-01
-9.6151424934165264E-01
-9.5539365056243553E-01
-9.4551854537502755E-01
-9.4112663151940623E-01
-9.2840949134170114E-01
-9.2161256009478154E-01
-9.1520215798710891E-01
-9.1441850252887669E-01
-9.0806625798648721E-01
-9.0003442775389819E-01
-8.8623192161458231E-01
-8.8167604136345845E-01
-8.6121032102923167E-01
-8.5901249947399660E-01
-8.5415427021240498E-01
-8.4639918567416206E-01
-8.3301107643130856E-01
-8.2660557645445953E-01
-8.1885678706284604E-01
-8.1403649239448828E-01
-8.0540761899304858E-01
-8.0028308614327337E-01
-7.9610044951689884E-01
-7.8991889487158051E-01
-7.7861480493011204E-01
-7.7208693803249129E-01
-7.6623341137319090E-01
-7.5419527139474485E-01
-7.5130124579091151E-01
-7.4182863721145220E-01
-7.3703200277349801E-01
-7.3137601810549691E-01
-7.1757986151357611E-01
-7.1057467931708240E-01
-7.1037576968351002E-01
-7.0573905706258744E-01
-7.0148320234934369E-01
-6.8968597224828732E-01
-6.8079056771350699E-01
-6.7265454167746219E-01
-6.6285148055463894E-01
-6.4792472287770642E-01
-6.4231765010898934E-01
-6.3881612666431475E-01
-6.3459052790259052E-01
-6.2433653210032158E-01
-6.1353782548392943E-01
-6.0736895977535721E-01
-6.0479452774097786E-01
-5.9824059284806730E-01
-5.8394668466157096E-01
-5.7671282290856318E-01
-5.7032740594071407E-01
-5.6963896945007986E-01
-5.6024313055872776E-01
-5.5283619526352779E-01
-5.4785480616861859E-01
-5.3454272418575854E-01
-5.3207558016924072E-01
-5.2196302447257592E-01
-5.0623626006332301E-01
-4.9927406939103469E-01
-4.9491447822305146E-01
-4.9309146103644774E-01
-4.8895403388629310E-01
-4.7729747317637033E-01
-4.6516949409889596E-01
-4.5648275410922229E-01
-4.5206439740027127E-01
-4.4584769101898974E-01
-4.4339092457194490E-01
-4.3345641373195271E-01
-4.2411461426547220E-01
-4.1238215408753820E-01
-4.0924398263772671E-01
-4.0587605145028549E-01
-3.9526271474772845E-01
-3.9021929049553217E-01
-3.6226889887700603E-01
-3.5781308378101206E-01
-3.3338689976704405E-01
-3.3305355075166126E-01
-3.2254407414890007E-01
-2.9499106484958365E-01
-2.7698851979993189E-01
-2.6687476631764079E-01
-2.5438886293885121E-01
-2.4277531034525318E-01
-2.1182753895652118E-01
-2.0228014538047878E-01
-1.9580831896111134E-01
-1.8364125309501311E-01
-1.7479845506657932E-01
-1.5552006398391213E-01
-1.4083475707700260E-01
QETSC: Iter time (min)       =   5.85
QETSC: Iter time (max)       =   7.54
QETSC: Iter time (avg)       =   6.42
QETSC: Num. of conv. evals   =         978
QETSC: Eigenvalue (1)        =-2.18141042995E+00
QETSC: Eigenvalue (nocc)     =-1.40834757077E-01
QETSC: Max differrence       = 3.39036815684E-01
QETSC: Safe iteration        =      F
QETSC: Finished iter            2
 *****************************************************************
 QETSC: Estimated eigenvalues         =
-3.7500000000000000E+00
-3.7391732283464565E+00
-3.7283464566929134E+00
-3.7175196850393699E+00
-3.7066929133858268E+00
-3.6958661417322833E+00
-3.6850393700787403E+00
-3.6742125984251968E+00
-3.6633858267716537E+00
-3.6525590551181102E+00
-3.6417322834645671E+00
-3.6309055118110236E+00
-3.6200787401574805E+00
-3.6092519685039370E+00
-3.5984251968503935E+00
-3.5875984251968505E+00
-3.5767716535433070E+00
-3.5659448818897639E+00
-3.5551181102362204E+00
-3.5442913385826773E+00
-3.5334645669291338E+00
-3.5226377952755907E+00
-3.5118110236220472E+00
-3.5009842519685037E+00
-3.4901574803149606E+00
-3.4793307086614171E+00
-3.4685039370078741E+00
-3.4576771653543306E+00
-3.4468503937007875E+00
-3.4360236220472440E+00
-3.4251968503937009E+00
-3.4143700787401574E+00
-3.4035433070866143E+00
-3.3927165354330708E+00
-3.3818897637795278E+00
-3.3710629921259843E+00
-3.3602362204724407E+00
-3.3494094488188977E+00
-3.3385826771653542E+00
-3.3277559055118111E+00
-3.3169291338582676E+00
-3.3061023622047245E+00
-3.2952755905511810E+00
-3.2844488188976380E+00
-3.2736220472440944E+00
-3.2627952755905514E+00
-3.2519685039370079E+00
-3.2411417322834648E+00
-3.2303149606299213E+00
-3.2194881889763778E+00
-3.2086614173228347E+00
-3.1978346456692912E+00
-3.1870078740157481E+00
-3.1761811023622046E+00
-3.1653543307086616E+00
-3.1545275590551181E+00
-3.1437007874015750E+00
-3.1328740157480315E+00
-3.1220472440944880E+00
-3.1112204724409449E+00
-3.1003937007874018E+00
-3.0895669291338583E+00
-3.0787401574803148E+00
-3.0679133858267718E+00
-3.0570866141732282E+00
-3.0462598425196852E+00
-3.0354330708661417E+00
-3.0246062992125982E+00
-3.0137795275590551E+00
-3.0029527559055120E+00
-2.9921259842519685E+00
-2.9812992125984250E+00
-2.9704724409448819E+00
-2.9596456692913384E+00
-2.9488188976377954E+00
-2.9379921259842519E+00
-2.9271653543307088E+00
-2.9163385826771653E+00
-2.9055118110236222E+00
-2.8946850393700787E+00
-2.8838582677165352E+00
-2.8730314960629921E+00
-2.8622047244094491E+00
-2.8513779527559056E+00
-2.8405511811023620E+00
-2.8297244094488190E+00
-2.8188976377952755E+00
-2.8080708661417324E+00
-2.7972440944881889E+00
-2.7864173228346458E+00
-2.7755905511811023E+00
-2.7647637795275593E+00
-2.7539370078740157E+00
-2.7431102362204722E+00
-2.7322834645669292E+00
-2.7214566929133861E+00
-2.7106299212598426E+00
-2.6998031496062991E+00
-2.6889763779527560E+00
-2.6781496062992125E+00
-2.6673228346456694E+00
-2.6564960629921259E+00
-2.6456692913385824E+00
-2.6348425196850394E+00
-2.6240157480314963E+00
-2.6131889763779528E+00
-2.6023622047244093E+00
-2.5915354330708662E+00
-2.5807086614173231E+00
-2.5698818897637796E+00
-2.5590551181102361E+00
-2.5482283464566926E+00
-2.5374015748031495E+00
-2.5265748031496065E+00
-2.5157480314960630E+00
-2.5049212598425195E+00
-2.4940944881889764E+00
-2.4832677165354333E+00
-2.4724409448818898E+00
-2.4616141732283463E+00
-2.4507874015748032E+00
-2.4399606299212602E+00
-2.4291338582677167E+00
-2.4183070866141732E+00
-2.4074803149606296E+00
-2.3966535433070866E+00
-2.3858267716535435E+00
-2.3750000000000000E+00
-2.3641732283464565E+00
-2.3533464566929134E+00
-2.3425196850393704E+00
-2.3316929133858268E+00
-2.3208661417322833E+00
-2.3100393700787403E+00
-2.2992125984251968E+00
-2.2883858267716537E+00
-2.2775590551181102E+00
-2.2667322834645667E+00
-2.2559055118110236E+00
-2.2450787401574805E+00
-2.2342519685039370E+00
-2.2234251968503935E+00
-2.2125984251968505E+00
-2.2017716535433074E+00
-2.1909448818897639E+00
-2.1801181102362204E+00
-2.1692913385826769E+00
-2.1584645669291338E+00
-2.1476377952755907E+00
-2.1368110236220472E+00
-2.1259842519685037E+00
-2.1151574803149606E+00
-2.1043307086614176E+00
-2.0935039370078741E+00
-2.0826771653543306E+00
-2.0718503937007875E+00
 1.0000000000000000E+01
 QETSC: Bins             =
-3.7500000000000000E+00
-3.6381233595800526E+00
-3.5262467191601048E+00
-3.4143700787401574E+00
-3.3024934383202100E+00
-3.1906167979002626E+00
-3.0787401574803148E+00
-2.9668635170603674E+00
-2.8549868766404201E+00
-2.7431102362204722E+00
-2.6312335958005248E+00
-2.5193569553805775E+00
-2.4074803149606296E+00
-2.2956036745406827E+00
-2.1837270341207349E+00
-2.0718503937007875E+00
 1.0000000000000000E+01
QETSC: Started iter            3
QETSC: Bin type used         =           3
QETSC: Buffer used           = 0.00000000000E+00
QETSC: EPS interval          =    -3.750,    10.000
QETSC: Inertia type          =           1
 QETSC: Eigenvalues         =
-2.3820406273581494E+00
-2.3456702003460577E+00
-2.3252505766512530E+00
-2.1872601903608273E+00
-1.9956945257376646E+00
-1.9865753505361410E+00
-1.9744726009859170E+00
-1.9438212375104924E+00
-1.8930615024271744E+00
-1.8856639740054268E+00
-1.8828856603041888E+00
-1.8080194421452283E+00
-1.7640208262038699E+00
-1.7528420544907619E+00
-1.7075355453967569E+00
-1.6995194278031471E+00
-1.6505979099587686E+00
-1.6360874808875994E+00
-1.6180606559476203E+00
-1.5964803638974618E+00
-1.5415695550756716E+00
-1.5236228298930514E+00
-1.4560109932765450E+00
-1.4366773512066560E+00
-1.4246470026138092E+00
-1.3991313592705645E+00
-1.3930254538804818E+00
-1.3674383708024596E+00
-1.3498997747503862E+00
-1.3459031412223272E+00
-1.3287780346117777E+00
-1.3184967966182766E+00
-1.2910395530089478E+00
-1.2787084451662369E+00
-1.2597950723526299E+00
-1.2341371690551439E+00
-1.2241366340259057E+00
-1.2228636118642588E+00
-1.2151012173045139E+00
-1.2008324204010559E+00
-1.1911717531227335E+00
-1.1766762577643699E+00
-1.1510424944251192E+00
-1.1506477829265460E+00
-1.1400775505971688E+00
-1.1376126527446135E+00
-1.1108463888736086E+00
-1.1091284008992670E+00
-1.1046964401371533E+00
-1.1016098718544920E+00
-1.0872025771050486E+00
-1.0774643077270136E+00
-1.0763553633541301E+00
-1.0620114735726822E+00
-1.0416903139909364E+00
-1.0200151566900781E+00
-1.0171770259408206E+00
-1.0119625216832422E+00
-1.0042577830767272E+00
-9.8557277121442233E-01
-9.7240537762224100E-01
-9.6208763835807698E-01
-9.5965482907062116E-01
-9.3844597308878264E-01
-9.3415663911816527E-01
-9.0861493976378438E-01
-9.0675225438430751E-01
-8.9083403605132760E-01
-8.8945330449625781E-01
-8.7415266907316169E-01
-8.6519519884000451E-01
-8.4835336390290506E-01
-8.3757776844888221E-01
-8.3358422712919822E-01
-8.3089244182417443E-01
-8.2550671268559439E-01
-8.1824909127223544E-01
-8.0882555371099030E-01
-8.0452022528455525E-01
-7.9353365438139079E-01
-7.9213728949377726E-01
-7.8456665679174320E-01
-7.7921194142312267E-01
-7.7758802821128081E-01
-7.6604906169424414E-01
-7.5079071009243958E-01
-7.4992502490999402E-01
-7.4175209592524638E-01
-7.3853572210700880E-01
-7.3253094771857319E-01
-7.2610069500400887E-01
-7.1445451336705790E-01
-7.1222422421295883E-01
-7.1063069731400874E-01
-7.0695765428738810E-01
-6.9894995280122774E-01
-6.9220014253173123E-01
-6.8886562167391807E-01
-6.8554012570281475E-01
-6.7401106347196649E-01
-6.6817656597472042E-01
-6.6205014846508203E-01
-6.5719270904126947E-01
-6.4940287265538532E-01
-6.4468301816416296E-01
-6.3241788195365123E-01
-6.3125845931967517E-01
-6.2419257267733386E-01
-6.1892910508854515E-01
-6.1236212930851641E-01
-6.0954042724251245E-01
-6.0092222626187985E-01
-5.9585907471396993E-01
-5.9341357141747531E-01
-5.8651514882924627E-01
-5.8477287128994748E-01
-5.7139957342471137E-01
-5.6910774401751851E-01
-5.5844277189732672E-01
-5.4974005651518731E-01
-5.4066312746760659E-01
-5.3343297114802746E-01
-5.2444574286230838E-01
-5.2074408943241335E-01
-5.1463242385845698E-01
-5.1070466378591828E-01
-4.9971432196597898E-01
-4.9269440704874146E-01
-4.7962419112141919E-01
-4.7474608029588550E-01
-4.7361342039656218E-01
-4.6908554432728722E-01
-4.6816487643829519E-01
-4.5814051461043370E-01
-4.4976376374923366E-01
-4.3972783422786288E-01
-4.3580712336623217E-01
-4.3104997144851842E-01
-4.2441092161945471E-01
-4.2243162433185188E-01
-4.0525692431886629E-01
-3.9624759597336223E-01
-3.8976902490893117E-01
-3.7711509640868135E-01
-3.6098079326784072E-01
-3.5640978694419312E-01
-3.4843308521652627E-01
-3.3423480014198237E-01
-3.2836980135797811E-01
-3.1818826088821173E-01
-3.1154147763929235E-01
-2.7454058533892189E-01
-2.6284647787135168E-01
-2.2188640397666334E-01
-1.9686902158892794E-01
-1.5734530709764527E-01
-1.3000208589605503E-01
QETSC: Iter time (min)       =   5.91
QETSC: Iter time (max)       =   7.03
QETSC: Iter time (avg)       =   6.50
QETSC: Num. of conv. evals   =         978
QETSC: Eigenvalue (1)        =-2.38204062736E+00
QETSC: Eigenvalue (nocc)     =-1.30002085896E-01
QETSC: Max differrence       = 2.00630197405E-01
QETSC: Safe iteration        =      F
QETSC: Finished iter            3
 *****************************************************************
 QETSC: Estimated eigenvalues         =
-3.7500000000000000E+00
-3.7392912772585669E+00
-3.7285825545171338E+00
-3.7178738317757007E+00
-3.7071651090342681E+00
-3.6964563862928350E+00
-3.6857476635514019E+00
-3.6750389408099688E+00
-3.6643302180685358E+00
-3.6536214953271027E+00
-3.6429127725856696E+00
-3.6322040498442369E+00
-3.6214953271028039E+00
-3.6107866043613708E+00
-3.6000778816199377E+00
-3.5893691588785046E+00
-3.5786604361370715E+00
-3.5679517133956384E+00
-3.5572429906542058E+00
-3.5465342679127727E+00
-3.5358255451713396E+00
-3.5251168224299065E+00
-3.5144080996884735E+00
-3.5036993769470404E+00
-3.4929906542056077E+00
-3.4822819314641746E+00
-3.4715732087227416E+00
-3.4608644859813085E+00
-3.4501557632398754E+00
-3.4394470404984423E+00
-3.4287383177570092E+00
-3.4180295950155761E+00
-3.4073208722741435E+00
-3.3966121495327104E+00
-3.3859034267912773E+00
-3.3751947040498442E+00
-3.3644859813084111E+00
-3.3537772585669781E+00
-3.3430685358255454E+00
-3.3323598130841123E+00
-3.3216510903426792E+00
-3.3109423676012462E+00
-3.3002336448598131E+00
-3.2895249221183800E+00
-3.2788161993769469E+00
-3.2681074766355138E+00
-3.2573987538940812E+00
-3.2466900311526481E+00
-3.2359813084112150E+00
-3.2252725856697819E+00
-3.2145638629283488E+00
-3.2038551401869158E+00
-3.1931464174454831E+00
-3.1824376947040500E+00
-3.1717289719626169E+00
-3.1610202492211839E+00
-3.1503115264797508E+00
-3.1396028037383177E+00
-3.1288940809968846E+00
-3.1181853582554515E+00
-3.1074766355140189E+00
-3.0967679127725858E+00
-3.0860591900311527E+00
-3.0753504672897196E+00
-3.0646417445482865E+00
-3.0539330218068539E+00
-3.0432242990654208E+00
-3.0325155763239877E+00
-3.0218068535825546E+00
-3.0110981308411215E+00
-3.0003894080996885E+00
-2.9896806853582554E+00
-2.9789719626168223E+00
-2.9682632398753892E+00
-2.9575545171339566E+00
-2.9468457943925235E+00
-2.9361370716510904E+00
-2.9254283489096573E+00
-2.9147196261682242E+00
-2.9040109034267916E+00
-2.8933021806853585E+00
-2.8825934579439254E+00
-2.8718847352024923E+00
-2.8611760124610592E+00
-2.8504672897196262E+00
-2.8397585669781931E+00
-2.8290498442367600E+00
-2.8183411214953269E+00
-2.8076323987538943E+00
-2.7969236760124612E+00
-2.7862149532710281E+00
-2.7755062305295950E+00
-2.7647975077881619E+00
-2.7540887850467293E+00
-2.7433800623052962E+00
-2.7326713395638631E+00
-2.7219626168224300E+00
-2.7112538940809969E+00
-2.7005451713395638E+00
-2.6898364485981308E+00
-2.6791277258566977E+00
-2.6684190031152646E+00
-2.6577102803738315E+00
-2.6470015576323989E+00
-2.6362928348909658E+00
-2.6255841121495327E+00
-2.6148753894081000E+00
-2.6041666666666670E+00
-2.5934579439252339E+00
-2.5827492211838008E+00
-2.5720404984423677E+00
-2.5613317757009346E+00
-2.5506230529595015E+00
-2.5399143302180685E+00
-2.5292056074766354E+00
-2.5184968847352023E+00
-2.5077881619937696E+00
-2.4970794392523366E+00
-2.4863707165109035E+00
-2.4756619937694704E+00
-2.4649532710280377E+00
-2.4542445482866047E+00
-2.4435358255451716E+00
-2.4328271028037385E+00
-2.4221183800623054E+00
-2.4114096573208723E+00
-2.4007009345794392E+00
-2.3899922118380061E+00
-2.3792834890965731E+00
-2.3685747663551400E+00
-2.3578660436137073E+00
-2.3471573208722742E+00
-2.3364485981308412E+00
-2.3257398753894081E+00
-2.3150311526479754E+00
-2.3043224299065423E+00
-2.2936137071651093E+00
-2.2829049844236762E+00
-2.2721962616822431E+00
-2.2614875389408100E+00
-2.2507788161993769E+00
-2.2400700934579438E+00
-2.2293613707165107E+00
-2.2186526479750777E+00
-2.2079439252336450E+00
-2.1972352024922119E+00
-2.1865264797507789E+00
-2.1758177570093458E+00
-2.1651090342679131E+00
-2.1544003115264800E+00
-2.1436915887850470E+00
-2.1329828660436139E+00
-2.1222741433021808E+00
-2.1115654205607477E+00
-2.1008566978193146E+00
-2.0901479750778815E+00
 1.0000000000000000E+01
 QETSC: Bins             =
-3.7500000000000000E+00
-3.6393431983385254E+00
-3.5286863966770508E+00
-3.4180295950155761E+00
-3.3073727933541015E+00
-3.1967159916926269E+00
-3.0860591900311527E+00
-2.9754023883696781E+00
-2.8647455867082035E+00
-2.7540887850467288E+00
-2.6434319833852542E+00
-2.5327751817237800E+00
-2.4221183800623054E+00
-2.3114615784008308E+00
-2.2008047767393562E+00
-2.0901479750778815E+00
 1.0000000000000000E+01
QETSC: Started iter            4
QETSC: Bin type used         =           3
QETSC: Buffer used           = 0.00000000000E+00
QETSC: EPS interval          =    -3.750,    10.000
QETSC: Inertia type          =           1
 QETSC: Eigenvalues         =
-2.2612376204700673E+00
-2.2395146807189317E+00
-2.0868030143650764E+00
-2.0687148972891625E+00
-2.0215332603791749E+00
-1.9780121184828063E+00
-1.9681734806172657E+00
-1.9350017300340610E+00
-1.9011006648585800E+00
-1.8709387471107297E+00
-1.8564753401496670E+00
-1.8550475681452001E+00
-1.8130359264789244E+00
-1.7738510597567674E+00
-1.7710743909552837E+00
-1.7623758138493544E+00
-1.7535369945522334E+00
-1.7524365592634827E+00
-1.7429669460984172E+00
-1.7135062209251180E+00
-1.6902970832699336E+00
-1.5837981563218988E+00
-1.5624593007558636E+00
-1.5266717885497674E+00
-1.5139977681555201E+00
-1.5010265196169901E+00
-1.4801838967800893E+00
-1.4630963965235495E+00
-1.4139845063600740E+00
-1.3967690918718596E+00
-1.3875121525758769E+00
-1.3587529659266280E+00
-1.3283821673005174E+00
-1.3249003987183556E+00
-1.3025949083015478E+00
-1.2911543011955990E+00
-1.2576140811312646E+00
-1.2513434657887739E+00
-1.2401806662850823E+00
-1.2250793128220421E+00
-1.2219681815927681E+00
-1.2078166662372831E+00
-1.1962856422960990E+00
-1.1908353859216372E+00
-1.1684753966215973E+00
-1.1577526225326720E+00
-1.1451974854242168E+00
-1.1323002641112139E+00
-1.1124472726935428E+00
-1.1039932721196368E+00
-1.0941030687368798E+00
-1.0887039254735527E+00
-1.0774812771319950E+00
-1.0692587884180507E+00
-1.0639685142389659E+00
-1.0510691811246351E+00
-1.0393023247426414E+00
-1.0105297500285488E+00
-9.9700536098515624E-01
-9.8754549280880743E-01
-9.6448066925999176E-01
-9.5517842996368718E-01
-9.4721572863927161E-01
-9.3844688652839858E-01
-9.3497725245465246E-01
-9.2022269811920532E-01
-9.1807531888296023E-01
-9.0818938114551118E-01
-9.0359160428716678E-01
-8.9425778648659215E-01
-8.9056064597264528E-01
-8.8611197656957919E-01
-8.7041292446382257E-01
-8.6169220827997195E-01
-8.5874195091752992E-01
-8.5138792129574636E-01
-8.4766970812956011E-01
-8.4623707909799695E-01
-8.4063341302317685E-01
-8.3720349188126419E-01
-8.2414311625532877E-01
-8.1933596809236220E-01
-8.1019058050651904E-01
-8.0793210419556671E-01
-8.0170443742326558E-01
-7.9607904663809859E-01
-7.8967978066785194E-01
-7.8342371960570989E-01
-7.8166470535640620E-01
-7.6570197489298097E-01
-7.6032352604661158E-01
-7.5648058683601405E-01
-7.4986430393469494E-01
-7.4851135173367866E-01
-7.4404668085075776E-01
-7.3495888196722159E-01
-7.3142283750842807E-01
-7.2419029250717981E-01
-7.2008180992123538E-01
-7.1192121158806665E-01
-7.0871813350326207E-01
-7.0586522672105634E-01
-6.9957272958291861E-01
-6.9747153952000895E-01
-6.9330674348958432E-01
-6.8282455904367645E-01
-6.7791825962014618E-01
-6.7377142443661342E-01
-6.7183954355259135E-01
-6.6721259139589306E-01
-6.6224376902473892E-01
-6.5825053173913783E-01
-6.5166997185793785E-01
-6.4713080786402721E-01
-6.4439673062018177E-01
-6.3983651953816334E-01
-6.2841095629586774E-01
-6.2416856259247411E-01
-6.2084631861187156E-01
-6.1558678837579306E-01
-6.1260305476789678E-01
-5.9952127967901148E-01
-5.9270640896278826E-01
-5.8595292513688713E-01
-5.8545956079208961E-01
-5.8284366078081573E-01
-5.7748465552171535E-01
-5.7042167696857693E-01
-5.6308017659327125E-01
-5.4258284282909142E-01
-5.3421799924514057E-01
-5.3178559528330049E-01
-5.2969781734729204E-01
-5.2502232357110445E-01
-5.2315825274133942E-01
-5.0752330663089285E-01
-5.0113578042296902E-01
-4.9954056324651597E-01
-4.8438467712949307E-01
-4.8232588172789637E-01
-4.8113576391957458E-01
-4.6283926594589964E-01
-4.5203554897266029E-01
-4.4384347822051351E-01
-4.3313616054536963E-01
-4.2270774443328918E-01
-4.2048142796200816E-01
-3.9127056426626067E-01
-3.5266089303819964E-01
-3.3861836086870961E-01
-3.1423369896023534E-01
-3.1267448504040818E-01
-3.0674839633373541E-01
-2.8487805925271281E-01
-2.8307093130978989E-01
-2.6055698632909718E-01
-2.4829368083033729E-01
QETSC: Iter time (min)       =   5.93
QETSC: Iter time (max)       =   7.65
QETSC: Iter time (avg)       =   6.46
QETSC: Num. of conv. evals   =         978
QETSC: Eigenvalue (1)        =-2.26123762047E+00
QETSC: Eigenvalue (nocc)     =-2.48293680830E-01
QETSC: Max differrence       = 2.38447562286E-01
QETSC: Safe iteration        =      F
QETSC: Finished iter            4
 *****************************************************************
 QETSC: Estimated eigenvalues         =
-3.7500000000000000E+00
-3.7392745709828392E+00
-3.7285491419656784E+00
-3.7178237129485181E+00
-3.7070982839313573E+00
-3.6963728549141965E+00
-3.6856474258970358E+00
-3.6749219968798750E+00
-3.6641965678627146E+00
-3.6534711388455539E+00
-3.6427457098283931E+00
-3.6320202808112323E+00
-3.6212948517940720E+00
-3.6105694227769112E+00
-3.5998439937597504E+00
-3.5891185647425896E+00
-3.5783931357254288E+00
-3.5676677067082685E+00
-3.5569422776911077E+00
-3.5462168486739469E+00
-3.5354914196567861E+00
-3.5247659906396258E+00
-3.5140405616224650E+00
-3.5033151326053042E+00
-3.4925897035881435E+00
-3.4818642745709827E+00
-3.4711388455538223E+00
-3.4604134165366616E+00
-3.4496879875195008E+00
-3.4389625585023400E+00
-3.4282371294851792E+00
-3.4175117004680189E+00
-3.4067862714508581E+00
-3.3960608424336973E+00
-3.3853354134165365E+00
-3.3746099843993758E+00
-3.3638845553822154E+00
-3.3531591263650546E+00
-3.3424336973478939E+00
-3.3317082683307331E+00
-3.3209828393135727E+00
-3.3102574102964120E+00
-3.2995319812792512E+00
-3.2888065522620904E+00
-3.2780811232449301E+00
-3.2673556942277693E+00
-3.2566302652106085E+00
-3.2459048361934477E+00
-3.2351794071762869E+00
-3.2244539781591266E+00
-3.2137285491419658E+00
-3.2030031201248050E+00
-3.1922776911076443E+00
-3.1815522620904835E+00
-3.1708268330733231E+00
-3.1601014040561624E+00
-3.1493759750390016E+00
-3.1386505460218408E+00
-3.1279251170046800E+00
-3.1171996879875197E+00
-3.1064742589703589E+00
-3.0957488299531981E+00
-3.0850234009360373E+00
-3.0742979719188765E+00
-3.0635725429017162E+00
-3.0528471138845554E+00
-3.0421216848673946E+00
-3.0313962558502343E+00
-3.0206708268330731E+00
-3.0099453978159127E+00
-2.9992199687987520E+00
-2.9884945397815912E+00
-2.9777691107644308E+00
-2.9670436817472701E+00
-2.9563182527301093E+00
-2.9455928237129485E+00
-2.9348673946957877E+00
-2.9241419656786274E+00
-2.9134165366614666E+00
-2.9026911076443058E+00
-2.8919656786271450E+00
-2.8812402496099843E+00
-2.8705148205928239E+00
-2.8597893915756631E+00
-2.8490639625585024E+00
-2.8383385335413416E+00
-2.8276131045241808E+00
-2.8168876755070205E+00
-2.8061622464898597E+00
-2.7954368174726989E+00
-2.7847113884555381E+00
-2.7739859594383773E+00
-2.7632605304212170E+00
-2.7525351014040562E+00
-2.7418096723868954E+00
-2.7310842433697351E+00
-2.7203588143525739E+00
-2.7096333853354135E+00
-2.6989079563182528E+00
-2.6881825273010920E+00
-2.6774570982839316E+00
-2.6667316692667704E+00
-2.6560062402496101E+00
-2.6452808112324493E+00
-2.6345553822152885E+00
-2.6238299531981282E+00
-2.6131045241809674E+00
-2.6023790951638066E+00
-2.5916536661466458E+00
-2.5809282371294850E+00
-2.5702028081123247E+00
-2.5594773790951639E+00
-2.5487519500780031E+00
-2.5380265210608428E+00
-2.5273010920436816E+00
-2.5165756630265212E+00
-2.5058502340093605E+00
-2.4951248049921997E+00
-2.4843993759750393E+00
-2.4736739469578781E+00
-2.4629485179407178E+00
-2.4522230889235570E+00
-2.4414976599063962E+00
-2.4307722308892359E+00
-2.4200468018720747E+00
-2.4093213728549143E+00
-2.3985959438377535E+00
-2.3878705148205928E+00
-2.3771450858034324E+00
-2.3664196567862712E+00
-2.3556942277691109E+00
-2.3449687987519501E+00
-2.3342433697347893E+00
-2.3235179407176290E+00
-2.3127925117004682E+00
-2.3020670826833074E+00
-2.2913416536661466E+00
-2.2806162246489858E+00
-2.2698907956318255E+00
-2.2591653666146647E+00
-2.2484399375975039E+00
-2.2377145085803436E+00
-2.2269890795631824E+00
-2.2162636505460220E+00
-2.2055382215288613E+00
-2.1948127925117005E+00
-2.1840873634945401E+00
-2.1733619344773789E+00
-2.1626365054602186E+00
-2.1519110764430578E+00
-2.1411856474258970E+00
-2.1304602184087367E+00
-2.1197347893915754E+00
-2.1090093603744151E+00
-2.0982839313572543E+00
-2.0875585023400935E+00
 1.0000000000000000E+01
 QETSC: Bins             =
-3.7500000000000000E+00
-3.6391705668226728E+00
-3.5283411336453456E+00
-3.4175117004680189E+00
-3.3066822672906917E+00
-3.1958528341133645E+00
-3.0850234009360373E+00
-2.9741939677587101E+00
-2.8633645345813834E+00
-2.7525351014040562E+00
-2.6417056682267290E+00
-2.5308762350494018E+00
-2.4200468018720747E+00
-2.3092173686947479E+00
-2.1983879355174203E+00
-2.0875585023400935E+00
 1.0000000000000000E+01
QETSC: Started iter            5
QETSC: Bin type used         =           3
QETSC: Buffer used           = 0.00000000000E+00
QETSC: EPS interval          =    -3.750,    10.000
QETSC: Inertia type          =           1
 QETSC: Eigenvalues         =
-2.1028332725917713E+00
-2.0501505263975357E+00
-2.0243794891400988E+00
-2.0070723147891849E+00
-1.9979018932078694E+00
-1.9636922203701253E+00
-1.9197284787429316E+00
-1.9072087349744755E+00
-1.9043253065960970E+00
-1.8743472277054005E+00
-1.8510929596103078E+00
-1.8428165284615374E+00
-1.8361266047826175E+00
-1.8182666865760209E+00
-1.8031006552388065E+00
-1.7849842930500186E+00
-1.7482363801627385E+00
-1.7285987428768819E+00
-1.7258853554077016E+00
-1.6951331866603461E+00
-1.6816527253313263E+00
-1.6791354018881306E+00
-1.6312201887496061E+00
-1.6230122098805886E+00
-1.4839362438632628E+00
-1.4575510860364236E+00
-1.4292842536534545E+00
-1.4229975011780192E+00
-1.3863609489016970E+00
-1.3745591287285224E+00
-1.3458672417680571E+00
-1.3349591392937230E+00
-1.3225027513325784E+00
-1.2998238760102263E+00
-1.2853200838831245E+00
-1.2726151199158457E+00
-1.2408470551079880E+00
-1.2331921055691626E+00
-1.2114762312347351E+00
-1.2040004669259001E+00
-1.1854064886377769E+00
-1.1704751934605238E+00
-1.1584936850698353E+00
-1.1541498287570728E+00
-1.1413961003452402E+00
-1.1324728530397823E+00
-1.1280718039923077E+00
-1.1031386895488982E+00
-1.0910219975786886E+00
-1.0859096176783314E+00
-1.0784911677379645E+00
-1.0771241643297527E+00
-1.0684089818500160E+00
-1.0506839018792296E+00
-1.0362262257279640E+00
-1.0229693458629161E+00
-9.9274378581079004E-01
-9.8511222501319529E-01
-9.7348532793226550E-01
-9.5510563461033615E-01
-9.5340777635727769E-01
-9.4498462070005296E-01
-9.3711460268133506E-01
-9.2684835450945968E-01
-9.1256997561056152E-01
-8.9691614377744711E-01
-8.8834905248863816E-01
-8.7981216005972995E-01
-8.6575049140149041E-01
-8.6088949665328673E-01
-8.5589124580021458E-01
-8.4751491429536463E-01
-8.4170445744107525E-01
-8.3677237028888884E-01
-8.3448601294259528E-01
-8.3213258642491417E-01
-8.2791279214068547E-01
-8.2530601605103882E-01
-8.1622038444936029E-01
-8.0775629727228448E-01
-8.0393017464243011E-01
-7.9807099258401837E-01
-7.9232363875889544E-01
-7.8583565407421430E-01
-7.8467718497588590E-01
-7.8141834297259094E-01
-7.7791638210632186E-01
-7.7336660421260239E-01
-7.6834234396284928E-01
-7.6209476128707554E-01
-7.5916106538719297E-01
-7.5553760478720788E-01
-7.4744065756138167E-01
-7.4142732208856743E-01
-7.3739218750378588E-01
-7.3638600565309531E-01
-7.3260665084255816E-01
-7.2699122840062058E-01
-7.2350677616410264E-01
-7.2079107413132837E-01
-7.1743173752460754E-01
-7.1091926901981550E-01
-7.0702304152924156E-01
-7.0278764915119551E-01
-6.9931190870690552E-01
-6.9704284797759863E-01
-6.9643429849176752E-01
-6.9309915975625047E-01
[...]
      %R - percent reductions in this phase
   Total Mflop/s: 10e-6 * (sum of flops over all processors)/(max time over all processors)
------------------------------------------------------------------------------------------------------------------------
Event                Count      Time (sec)     Flops                             --- Global ---  --- Stage ---   Total
                   Max Ratio  Max     Ratio   Max  Ratio  Mess   Avg len Reduct  %T %F %M %L %R  %T %F %M %L %R Mflop/s
------------------------------------------------------------------------------------------------------------------------

--- Event Stage 0: Main Stage


--- Event Stage 1: siesta_init


--- Event Stage 2: siesta_forces


--- Event Stage 3: siesta_solve


--- Event Stage 4: siesta2qetsc

MatConvert            17 1.0 2.1646e-02 4.2 0.00e+00 0.0 0.0e+00 0.0e+00 0.0e+00  0  0  0  0  0   1  0  0  0  0     0
MatAssemblyBegin      18 1.0 1.5804e+00 1.1 0.00e+00 0.0 0.0e+00 0.0e+00 7.2e+01  1  0  0  0  2  66  0  0  0 85     0
MatAssemblyEnd        18 1.0 5.6489e-01 1.0 0.00e+00 0.0 8.8e+02 1.7e+02 1.1e+01  0  0  1  0  0  24  0100100 13     0
VecSet                18 1.0 6.8653e-0329.1 0.00e+00 0.0 0.0e+00 0.0e+00 0.0e+00  0  0  0  0  0   0  0  0  0  0     0

--- Event Stage 5: qetsc_setup_eps

MatConvert            16 1.0 2.1082e-02 3.3 0.00e+00 0.0 0.0e+00 0.0e+00 0.0e+00  0  0  0  0  0   1  0  0  0  0     0
MatScale              32 1.0 6.8727e-03 1.3 3.08e+06 1.0 0.0e+00 0.0e+00 0.0e+00  0  0  0  0  0   0100  0  0  0  7178
MatAssemblyBegin      16 1.0 6.9141e-06 7.2 0.00e+00 0.0 0.0e+00 0.0e+00 0.0e+00  0  0  0  0  0   0  0  0  0  0     0
MatAssemblyEnd        16 1.0 1.8218e-03 1.2 0.00e+00 0.0 0.0e+00 0.0e+00 0.0e+00  0  0  0  0  0   0  0  0  0  0     0
MatGetSubMatrice      16 1.0 1.6284e+00 1.1 0.00e+00 0.0 1.9e+04 2.9e+04 3.2e+01  1  0 12 81  1  92  0100100 94     0
MatAXPY               16 1.0 4.5669e-03 1.2 0.00e+00 0.0 0.0e+00 0.0e+00 0.0e+00  0  0  0  0  0   0  0  0  0  0     0
MatRedundantMat       16 1.0 1.6573e+00 1.2 0.00e+00 0.0 1.9e+04 2.9e+04 3.2e+01  1  0 12 81  1  93  0100100 94     0

--- Event Stage 6: qetsc_solve_eps

MatMult            5646134.0 2.3138e+0127.0 4.34e+1034.0 0.0e+00 0.0e+00 0.0e+00  1 84  0  0  0   5 84  0  0  0  3292
MatSolve           2212237.6 1.7419e+0122.7 0.00e+00 0.0 0.0e+00 0.0e+00 0.0e+00  1  0  0  0  0   4  0  0  0  0     0
MatCholFctrSym         1 1.0 1.7515e-01 2.2 0.00e+00 0.0 0.0e+00 0.0e+00 0.0e+00  0  0  0  0  0   0  0  0  0  0     0
MatCholFctrNum       174 7.6 3.7834e+00 8.5 0.00e+00 0.0 0.0e+00 0.0e+00 0.0e+00  0  0  0  0  0   1  0  0  0  0     0
MatCopy              173 7.9 1.6556e+00 9.4 0.00e+00 0.0 0.0e+00 0.0e+00 0.0e+00  0  0  0  0  0   0  0  0  0  0     0
MatConvert             3 1.0 3.2730e-03 2.7 0.00e+00 0.0 0.0e+00 0.0e+00 0.0e+00  0  0  0  0  0   0  0  0  0  0     0
MatAssemblyBegin     349 7.4 3.7909e-0517.7 0.00e+00 0.0 0.0e+00 0.0e+00 0.0e+00  0  0  0  0  0   0  0  0  0  0     0
MatAssemblyEnd       349 7.4 4.3972e-02 7.8 0.00e+00 0.0 0.0e+00 0.0e+00 0.0e+00  0  0  0  0  0   0  0  0  0  0     0
MatGetRow         509538 7.7 8.8615e-0110.0 0.00e+00 0.0 0.0e+00 0.0e+00 0.0e+00  0  0  0  0  0   0  0  0  0  0     0
MatGetRowIJ            1 1.0 9.5367e-07 0.0 0.00e+00 0.0 0.0e+00 0.0e+00 0.0e+00  0  0  0  0  0   0  0  0  0  0     0
MatGetSubMatrice       2 1.0 3.1745e-01 1.1 0.00e+00 0.0 2.4e+03 2.9e+04 4.0e+00  0  0  2 10  0   1  0 78100  2     0
MatGetOrdering         1 1.0 4.4012e-0426.0 0.00e+00 0.0 0.0e+00 0.0e+00 0.0e+00  0  0  0  0  0   0  0  0  0  0     0
MatZeroEntries       173 7.9 2.1194e-02 6.8 0.00e+00 0.0 0.0e+00 0.0e+00 0.0e+00  0  0  0  0  0   0  0  0  0  0     0
MatAXPY              174 7.6 3.1754e+00 8.7 0.00e+00 0.0 0.0e+00 0.0e+00 0.0e+00  0  0  0  0  0   1  0  0  0  0     0
MatRedundantMat        2 1.0 3.3000e-01 1.1 0.00e+00 0.0 2.4e+03 2.9e+04 4.0e+00  0  0  2 10  0   1  0 78100  2     0
VecDot              5956283.6 2.1647e-0174.1 1.16e+07283.6 0.0e+00 0.0e+00 0.0e+00  0  0  0  0  0   0  0  0  0  0    69
VecCopy             4156593.7 4.4274e-034642.5 0.00e+00 0.0 0.0e+00 0.0e+00 0.0e+00  0  0  0  0  0   0  0  0  0  0     0
VecSet             7912533.6 1.2121e-0125.8 0.00e+00 0.0 0.0e+00 0.0e+00 0.0e+00  0  0  0  0  0   0  0  0  0  0     0
VecSetRandom         14520.7 5.8110e-0320.5 0.00e+00 0.0 0.0e+00 0.0e+00 0.0e+00  0  0  0  0  0   0  0  0  0  0     0
EPSSetUp              23 1.0 5.1267e+00 1.0 0.00e+00 0.0 3.1e+03 2.3e+04 7.4e+01  2  0  2 10  2   8  0100100 42     0
EPSSolve              17 1.0 5.9709e+01 1.0 5.31e+1036.5 5.1e+02 6.0e+00 1.5e+02 24100  0  0  3  97100 17  0 84  1514
STSetUp               40 1.0 1.1109e+00 1.2 0.00e+00 0.0 0.0e+00 0.0e+00 2.0e+00  0  0  0  0  0   2  0  0  0  1     0
STApply            2212237.6 2.6962e+0125.5 1.70e+1037.6 0.0e+00 0.0e+00 0.0e+00  1 32  0  0  0   5 32  0  0  0  1082
STMatSolve         2212237.6 1.7801e+0122.8 0.00e+00 0.0 0.0e+00 0.0e+00 0.0e+00  1  0  0  0  0   4  0  0  0  0     0
KSPSetUp             174 7.6 4.8876e-0512.8 0.00e+00 0.0 0.0e+00 0.0e+00 0.0e+00  0  0  0  0  0   0  0  0  0  0     0
KSPSolve           2212237.6 1.7527e+0122.7 0.00e+00 0.0 0.0e+00 0.0e+00 0.0e+00  1  0  0  0  0   4  0  0  0  0     0
PCSetUp              174 7.6 3.9143e+00 7.1 0.00e+00 0.0 0.0e+00 0.0e+00 0.0e+00  0  0  0  0  0   1  0  0  0  0     0
PCApply            2212237.6 1.7425e+0122.7 0.00e+00 0.0 0.0e+00 0.0e+00 0.0e+00  1  0  0  0  0   4  0  0  0  0     0
BVCreate             168 8.4 2.5202e-01 1.4 0.00e+00 0.0 0.0e+00 0.0e+00 1.2e+01  0  0  0  0  0   0  0  0  0  7     0
BVCopy              4156593.7 5.4104e-03540.3 0.00e+00 0.0 0.0e+00 0.0e+00 0.0e+00  0  0  0  0  0   0  0  0  0  0     0
BVMultVec          2838327.0 1.3949e+0025.5 4.09e+0947.8 0.0e+00 0.0e+00 0.0e+00  0  7  0  0  0   0  7  0  0  0  4401
BVMultInPlace        33748.1 2.4765e-0172.6 1.44e+09438.7 0.0e+00 0.0e+00 0.0e+00  0  2  0  0  0   0  2  0  0  0  7338
BVDotVec           2838327.0 1.3442e+0117.7 2.59e+1029.0 0.0e+00 0.0e+00 0.0e+00  1 52  0  0  0   3 52  0  0  0  3526
BVOrthogonalizeV   1616628.5 1.4877e+0118.2 3.00e+1030.6 0.0e+00 0.0e+00 0.0e+00  1 59  0  0  0   4 59  0  0  0  3598
BVScale            2212237.6 4.3281e-0131.0 2.16e+0737.6 0.0e+00 0.0e+00 0.0e+00  0  0  0  0  0   0  0  0  0  0    86
BVNormVec           5956283.6 2.5931e+00225.6 4.59e+09283.6 0.0e+00 0.0e+00 0.0e+00  0  6  0  0  0   0  6  0  0  0  2260
BVSetRandom          14520.7 5.9762e-0320.5 0.00e+00 0.0 0.0e+00 0.0e+00 0.0e+00  0  0  0  0  0   0  0  0  0  0     0
DSSolve              33748.1 2.0366e+00237.7 0.00e+00 0.0 0.0e+00 0.0e+00 0.0e+00  0  0  0  0  0   0  0  0  0  0     0
DSVectors          2034236.3 4.1084e-0345.2 0.00e+00 0.0 0.0e+00 0.0e+00 0.0e+00  0  0  0  0  0   0  0  0  0  0     0
DSOther              33748.1 1.2229e-0222.8 0.00e+00 0.0 0.0e+00 0.0e+00 0.0e+00  0  0  0  0  0   0  0  0  0  0     0

--- Event Stage 7: qetsc_eigvals


--- Event Stage 8: qetsc_density

VecCopy             2669 1.0 6.5875e-04 1.2 0.00e+00 0.0 0.0e+00 0.0e+00 0.0e+00  0  0  0  0  0   0  0  0  0  0     0
VecSet                 1 1.0 2.1458e-06 2.2 0.00e+00 0.0 0.0e+00 0.0e+00 0.0e+00  0  0  0  0  0   0  0  0  0  0     0
VecScatterBegin    10282 1.0 4.3735e+01 1.0 0.00e+00 0.0 1.1e+05 4.9e+02 2.7e+03 17  0 74  8 58  56  0 87 95 62     0
VecScatterEnd       7613 1.0 6.2425e+00 1.4 0.00e+00 0.0 0.0e+00 0.0e+00 0.0e+00  2  0  0  0  0   7  0  0  0  0     0
BVCopy              2669 1.0 1.2565e-02 8.9 0.00e+00 0.0 0.0e+00 0.0e+00 0.0e+00  0  0  0  0  0   0  0  0  0  0     0

--- Event Stage 9: Unknown


--- Event Stage 10: siesta_misc


--- Event Stage 11: qetsc_clean


--- Event Stage 12: siesta_move


--- Event Stage 13: siesta_analysis


--- Event Stage 14: siesta_end

------------------------------------------------------------------------------------------------------------------------

Memory usage is given in bytes:

Object Type          Creations   Destructions     Memory  Descendants' Mem.
Reports information only for process 0.

--- Event Stage 0: Main Stage


--- Event Stage 1: siesta_init


--- Event Stage 2: siesta_forces


--- Event Stage 3: siesta_solve


--- Event Stage 4: siesta2qetsc

              Matrix    54              0            0     0.
              Vector   109              1         1648     0.
      Vector Scatter    19              0            0     0.
           Index Set     4              4        17296     0.

--- Event Stage 5: qetsc_setup_eps

              Matrix    32             48      4670720     0.
              Vector     1             96       392960     0.
      Vector Scatter     0             16        17152     0.
           Index Set    64             32        25088     0.
          EPS Solver     1              0            0     0.
  Spectral Transform     1              0            0     0.
       Krylov Solver     1              0            0     0.
      Preconditioner     1              0            0     0.
       Basis Vectors     1              0            0     0.
         PetscRandom     1              0            0     0.
              Region     1              0            0     0.
       Direct Solver     1              0            0     0.

--- Event Stage 6: qetsc_solve_eps

              Matrix    40             33     71411558     0.
              Vector   232            215     16472392     0.
           Index Set    10              5         3920     0.
          EPS Solver     1              0            0     0.
  Spectral Transform     1              0            0     0.
       Krylov Solver     1              0            0     0.
      Preconditioner     1              0            0     0.
       Basis Vectors    46             44       105264     0.
         PetscRandom    11             11         7018     0.
              Region     1              0            0     0.
       Direct Solver     1              0            0     0.

--- Event Stage 7: qetsc_eigvals


--- Event Stage 8: qetsc_density

              Vector    18             17       161024     0.
      Vector Scatter   273            272       300016     0.
           Index Set   545            545       562192     0.

--- Event Stage 9: Unknown


--- Event Stage 10: siesta_misc


--- Event Stage 11: qetsc_clean

              Matrix     0             13     13843974     0.
              Vector     0             30       893272     0.
      Vector Scatter     0              3         3216     0.
           Index Set     0              5         7832     0.
          EPS Solver     0              2        77868     0.
  Spectral Transform     0              2         1616     0.
       Krylov Solver     0              2         2336     0.
      Preconditioner     0              2         1952     0.
       Basis Vectors     0              3         3168     0.
         PetscRandom     0              1          638     0.
              Region     0              2         1312     0.
       Direct Solver     0              2      3061968     0.

--- Event Stage 12: siesta_move


--- Event Stage 13: siesta_analysis


--- Event Stage 14: siesta_end

              Viewer     1              0            0     0.
========================================================================================================================
Average time to get PetscTime(): 0.
Average time for MPI_Barrier(): 0.0280018
Average time for zero size MPI_Send(): 0.00274844
#PETSc Option Table entries:
-eps_interval -100,10
-eps_krylovschur_detect_zeros 0
-eps_krylovschur_partitions 16
-ioptbin 3
-ioptinertia 1
-ioptleft 0
-isglobal 1
-log_view
-malloc_log
-mat_mumps_cntl_3 1e-12
-mat_mumps_icntl_13 1
-mat_mumps_icntl_24 1
-mat_mumps_icntl_28 1
-mat_type mpisbaij
-memory_view
-roptbuffer 0.1
-roptdiff 0.1
-roptleft -100
-roptright 10
-st_pc_factor_mat_solver_package mkl_pardiso
-writeeigs 1
#End of PETSc Option Table entries
Compiled without FORTRAN kernels
Compiled with full precision matrices (default)
sizeof(short) 2 sizeof(int) 4 sizeof(long) 8 sizeof(void*) 8 sizeof(PetscScalar) 8 sizeof(PetscInt) 4
Configure options: --download-metis=1 --download-mumps=1 --download-parmetis=1 --download-ptscotch=1 --download-scalapack=1 --with-blas-lapack-dir=/soft/mkl/11.1.0.080/mkl/ --with-debugging=0 --with-mkl_pardiso-dir=/soft/mkl/11.1.0.080/mkl/ --with-shared-libraries=0 -COPTFLAGS="-O3 -g" -CXXOPTFLAGS="-O3 -g" -FOPTFLAGS="-O3 -g" CC=mpicc CXX=mpicxx FC=mpif90 PETSC_ARCH=arch-gccopt
-----------------------------------------
Libraries compiled on Fri Sep 23 14:58:29 2016 on blogin3 
Machine characteristics: Linux-2.6.32-642.1.1.el6.x86_64-x86_64-with-centos-6.7-Final
Using PETSc directory: /home/keceli/lib/petsc
Using PETSc arch: arch-gccopt
-----------------------------------------

Using C compiler: mpicc   -Wall -Wwrite-strings -Wno-strict-aliasing -Wno-unknown-pragmas -fvisibility=hidden -O3 -g  ${COPTFLAGS} ${CFLAGS}
Using Fortran compiler: mpif90  -Wall -ffree-line-length-0 -Wno-unused-dummy-argument -O3 -g   ${FOPTFLAGS} ${FFLAGS} 
-----------------------------------------

Using include paths: -I/home/keceli/lib/petsc/arch-gccopt/include -I/home/keceli/lib/petsc/include -I/home/keceli/lib/petsc/include -I/home/keceli/lib/petsc/arch-gccopt/include -I/soft/mkl/11.1.0.080/mkl/include -I/blues/gpfs/home/software/spack/opt/spack/linux-x86_64/gcc-5.3.0/mpich-3.2-wraqufukmp7yzyl6a644pnmda7wkg7w7/include
-----------------------------------------

Using C linker: mpicc
Using Fortran linker: mpif90
Using libraries: -Wl,-rpath,/home/keceli/lib/petsc/arch-gccopt/lib -L/home/keceli/lib/petsc/arch-gccopt/lib -lpetsc -Wl,-rpath,/home/keceli/lib/petsc/arch-gccopt/lib -L/home/keceli/lib/petsc/arch-gccopt/lib -lcmumps -ldmumps -lsmumps -lzmumps -lmumps_common -lpord -lscalapack -Wl,-rpath,/soft/mkl/11.1.0.080/mkl/lib/intel64 -L/soft/mkl/11.1.0.080/mkl/lib/intel64 -lmkl_intel_lp64 -lmkl_core -lmkl_intel_thread -liomp5 -ldl -lpthread -lm -lparmetis -lmetis -lptesmumps -lptscotch -lptscotcherr -lscotch -lscotcherr -lX11 -lhwloc -lpthread -lssl -lcrypto -lm -L/blues/gpfs/home/software/spack/opt/spack/linux-x86_64/gcc-4.4.7/gcc-5.3.0-fygfl7rvyuiteto27dlhmilp5cstw2o2/lib64 -L/blues/gpfs/home/software/spack/opt/spack/linux-x86_64/gcc-5.3.0/mpich-3.2-wraqufukmp7yzyl6a644pnmda7wkg7w7/lib -L/blues/gpfs/home/software/spack/opt/spack/linux-x86_64/gcc-4.4.7/gcc-5.3.0-fygfl7rvyuiteto27dlhmilp5cstw2o2/lib64/gcc/x86_64-unknown-linux-gnu/5.3.0 -L/soft/intel/13.1.3/lib/intel64 -L/soft/intel/13.1.3/ipp/lib/intel64 -L/soft/intel/13.1.3/tbb/lib/intel64/gcc4.4 -L/soft/lcrc/lib -lmpifort -lgfortran -lm -Wl,-rpath,/blues/gpfs/home/software/spack/opt/spack/linux-x86_64/gcc-4.4.7/gcc-5.3.0-fygfl7rvyuiteto27dlhmilp5cstw2o2/lib:/blues/gpfs/home/software/spack/opt/spack/linux-x86_64/gcc-4.4.7/gcc-5.3.0-fygfl7rvyuiteto27dlhmilp5cstw2o2/lib64 -Wl,-rpath,/blues/gpfs/home/software/spack/opt/spack/linux-x86_64/gcc-5.3.0/mpich-3.2-wraqufukmp7yzyl6a644pnmda7wkg7w7/lib -lgfortran -lm -lquadmath -lm -lmpicxx -lstdc++ -lrt -lm -lpthread -lz -Wl,-rpath,/blues/gpfs/home/software/spack/opt/spack/linux-x86_64/gcc-4.4.7/gcc-5.3.0-fygfl7rvyuiteto27dlhmilp5cstw2o2/lib:/blues/gpfs/home/software/spack/opt/spack/linux-x86_64/gcc-4.4.7/gcc-5.3.0-fygfl7rvyuiteto27dlhmilp5cstw2o2/lib64 -L/blues/gpfs/home/software/spack/opt/spack/linux-x86_64/gcc-5.3.0/mpich-3.2-wraqufukmp7yzyl6a644pnmda7wkg7w7/lib -L/blues/gpfs/home/software/spack/opt/spack/linux-x86_64/gcc-4.4.7/gcc-5.3.0-fygfl7rvyuiteto27dlhmilp5cstw2o2/lib64/gcc/x86_64-unknown-linux-gnu/5.3.0 -L/blues/gpfs/home/software/spack/opt/spack/linux-x86_64/gcc-4.4.7/gcc-5.3.0-fygfl7rvyuiteto27dlhmilp5cstw2o2/lib64 -L/soft/intel/13.1.3/lib/intel64 -L/soft/intel/13.1.3/ipp/lib/intel64 -L/soft/intel/13.1.3/tbb/lib/intel64/gcc4.4 -L/soft/lcrc/lib -L/blues/gpfs/home/software/spack/opt/spack/linux-x86_64/gcc-4.4.7/gcc-5.3.0-fygfl7rvyuiteto27dlhmilp5cstw2o2/lib64 -ldl -Wl,-rpath,/blues/gpfs/home/software/spack/opt/spack/linux-x86_64/gcc-5.3.0/mpich-3.2-wraqufukmp7yzyl6a644pnmda7wkg7w7/lib -lmpi -lgcc_s -ldl 
-----------------------------------------

[0] Maximum memory PetscMalloc()ed 106227136 maximum size of entire process 203472896
[0] Memory usage sorted by function
[0] 3 3120 BVCreate()
[0] 3 48 BVCreate_Svec()
[0] 2 1984 DSAllocateMatReal_Private()
[0] 4 105024 DSAllocateMat_Private()
[0] 2 352 DSAllocate_HEP()
[0] 2 2656 DSCreate()
[0] 2 96 DSGetSlepcSC()
[0] 2 29792 EPSAllocateSolution()
[0] 4 2336 EPSCreate()
[0] 2 384 EPSCreate_KrylovSchur()
[0] 2 224 EPSKrylovSchurGetInertias_KrylovSchur()
[0] 2 288 EPSKrylovSchurSetSubintervals_KrylovSchur()
[0] 5 832 EPSSetUp_KrylovSchur_Slice()
[0] 1 80 EPSSliceAllocateSolution()
[0] 4 14176 ISBlockSetIndices_Block()
[0] 4 15680 ISCompressIndicesGeneral()
[0] 14 10752 ISCreate()
[0] 4 64 ISCreate_Block()
[0] 6 96 ISCreate_General()
[0] 4 64 ISCreate_Stride()
[0] 10 39200 ISEqual()
[0] 1 3920 ISGeneralSetIndices_General()
[0] 12 47040 ISGetIndices_Stride()
[0] 2 32 KSPConvergedDefaultCreate()
[0] 2 2336 KSPCreate()
[0] 2 15680 MatAXPY_BasicWithPreallocation()
[0] 2 7840 MatAXPY_SeqSBAIJ()
[0] 6 1548768 MatAssemblyEnd_SeqSBAIJ()
[0] 14 38304 MatCreate()
[0] 2 224 MatCreateRedundantMatrix()
[0] 4 928 MatCreate_MPISBAIJ()
[0] 2 544 MatCreate_SeqBAIJ()
[0] 9 3744 MatCreate_SeqSBAIJ()
[0] 1 166912 MatDuplicateNoCreate_SeqBAIJ()
[0] 1 2368 MatDuplicate_MPISBAIJ()
[0] 11 8146736 MatDuplicate_SeqSBAIJ()
[0] 1 15648 MatFactorMKL_PARDISOInitialize_Private()
[0] 1 928 MatGetFactor_aij_mkl_pardiso()
[0] 1 3920 MatGetOrdering_Natural()
[0] 6372 7797696 MatGetRow_SeqBAIJ_private()
[0] 6 192 MatGetSubMatrices_MPIBAIJ()
[0] 152 12274080 MatGetSubMatrices_MPIBAIJ_local()
[0] 6 192 MatRegisterBaseName()
[0] 2 4528 MatSeqBAIJSetPreallocation_SeqBAIJ()
[0] 10 9299936 MatSeqSBAIJSetPreallocation_SeqSBAIJ()
[0] 4 18112 MatSetUpMultiply_MPISBAIJ()
[0] 1565 185728448 MatSetValues_MPISBAIJ()
[0] 19 848 MatSolverPackageRegister()
[0] 8 768 MatStashCreate_Private()
[0] 20 1280 MatStashScatterBegin_Ref()
[0] 2 1632 PCCreate()
[0] 2 320 PCCreate_Cholesky()
[0] 30 48240 PetscClassPerfLogCreate()
[0] 2 1616 PetscClassRegLogCreate()
[0] 4 64 PetscCommDuplicate()
[0] 30 144240 PetscEventPerfLogCreate()
[0] 30 864000 PetscEventPerfLogEnsureSize()
[0] 2 1616 PetscEventRegLogCreate()
[0] 2 9600 PetscEventRegLogRegister()
[0] 361 11552 PetscFunctionListAdd_Private()
[0] 13 3104 PetscGatherMessageLengths()
[0] 9 1296 PetscGatherNumberOfMessages()
[0] 2 528 PetscIntStackCreate()
[0] 73 3504 PetscLayoutCreate()
[0] 52 1536 PetscLayoutSetUp()
[0] 18 1440 PetscObjectComposedDataIncreaseReal()
[0] 8 144 PetscOptionsGetEList()
[0] 1 16 PetscOptionsHelpPrintedCreate()
[0] 10 8256 PetscPostIrecvInt()
[0] 4 64 PetscPostIrecvScalar()
[0] 1 32 PetscPushSignalHandler()
[0] 1 624 PetscRandomCreate()
[0] 1 16 PetscRandomCreate_Rander48()
[0] 4 20096 PetscSegBufferCreate()
[0] 2 1328 PetscStageLogCreate()
[0] 1 2560 PetscStageLogRegister()
[0] 766 16992 PetscStrallocpy()
[0] 1 48 PetscSubcommCreate()
[0] 1 80 PetscSubcommCreate_contiguous()
[0] 38 117920 PetscTableAddExpand()
[0] 21 28448 PetscTableCreate()
[0] 2 64 PetscTokenCreate()
[0] 2 1248 RGCreate()
[0] 2 64 RGCreate_Interval()
[0] 2 1536 STCreate()
[0] 4 64 STSetOperators()
[0] 2 32 STSetUp()
[0] 31 46624 VecCreate()
[0] 21 510160 VecCreate_MPI_Private()
[0] 9 690128 VecCreate_Seq()
[0] 19 608 VecCreate_Seq_Private()
[0] 1 656 VecScatterCopy()
[0] 7 8304 VecScatterCopy_PtoP_X()
[0] 2 1312 VecScatterCreate()
[0] 3 144 VecScatterCreateCommon_PtoS()
[0] 3 24176 VecScatterCreate_PtoP()
[0] 22 36912 VecScatterCreate_PtoS()
[0] 24 1536 VecStashCreate_Private()
[0] 1 16 epssettype_()
[0] 1 16 kspsettype_()
[0] 1 16 pcfactorsetmatsolverpackage_()
[0] 1 16 pcsettype_()
[0] 14 224 petsclogstageregister_()
[0] 2 32 petscoptionsgetbool_()
[0] 4 80 petscoptionsgetint_()
[0] 6 96 petscoptionsgetreal_()
[0] 1 80 petscoptionsinsertstring_()
[0] 1 16 stsettype_()
