Siesta Version: siesta-trunk-492
Architecture  : x86_64-unknown-linux-gnu--unknown
Compiler flags: ftn -g -O3  -ffast-math -funroll-loops -I/global/homes/k/keceli/petsc/includee -I/global/homes/k/keceli/petsc/arch-cori-gcc/include -I/global/homes/k/keceli/slepcfork/arch-cori-gcc/include -I/global/homes/k/keceli/slepcfork/include
PP flags      : -DMPI -DFC_HAVE_FLUSH -DFC_HAVE_ABORT 
PARALLEL version

* Running on  128 nodes in parallel
>> Start of run:   8-DEC-2016   4:56:43

                           ***********************       
                           *  WELCOME TO SIESTA  *       
                           ***********************       
WARNING: Siesta is reading its input from file INPUT_DEBUG

reinit: -----------------------------------------------------------------------
reinit: System Name: BN
reinit: -----------------------------------------------------------------------
reinit: System Label: BN                                                          
reinit: -----------------------------------------------------------------------

initatom: Reading input for the pseudopotentials and atomic orbitals ----------
Species number:   1 Atomic number:    5 Label: B
Species number:   2 Atomic number:    7 Label: N

Ground state valence configuration:   2s02  2p01
Reading pseudopotential information in formatted form from B.psf

Valence configuration for pseudopotential generation:
2s( 2.00) rc: 1.74
2p( 1.00) rc: 1.74
3d( 0.00) rc: 1.74
4f( 0.00) rc: 1.74
Ground state valence configuration:   2s02  2p03
Reading pseudopotential information in formatted form from N.psf

Valence configuration for pseudopotential generation:
2s( 2.00) rc: 1.48
2p( 3.00) rc: 1.48
3d( 0.00) rc: 1.48
4f( 0.00) rc: 1.48
For B, standard SIESTA heuristics set lmxkb to 3
 (one more than the basis l, including polarization orbitals).
Use PS.lmax or PS.KBprojectors blocks to override.
For N, standard SIESTA heuristics set lmxkb to 3
 (one more than the basis l, including polarization orbitals).
Use PS.lmax or PS.KBprojectors blocks to override.

<basis_specs>
===============================================================================
B                    Z=   5    Mass=  10.810        Charge= 0.17977+309
Lmxo=1 Lmxkb= 3    BasisType=split      Semic=F
L=0  Nsemic=0  Cnfigmx=2
          n=1  nzeta=2  polorb=0
            splnorm:   0.15000    
               vcte:    0.0000    
               rinn:    0.0000    
               qcoe:    0.0000    
               qyuk:    0.0000    
               qwid:   0.10000E-01
                rcs:    0.0000      0.0000    
            lambdas:    1.0000      1.0000    
L=1  Nsemic=0  Cnfigmx=2
          n=1  nzeta=2  polorb=1
            splnorm:   0.15000    
               vcte:    0.0000    
               rinn:    0.0000    
               qcoe:    0.0000    
               qyuk:    0.0000    
               qwid:   0.10000E-01
                rcs:    0.0000      0.0000    
            lambdas:    1.0000      1.0000    
-------------------------------------------------------------------------------
L=0  Nkbl=1  erefs: 0.17977+309
L=1  Nkbl=1  erefs: 0.17977+309
L=2  Nkbl=1  erefs: 0.17977+309
L=3  Nkbl=1  erefs: 0.17977+309
===============================================================================
</basis_specs>

atom: Called for B                     (Z =   5)

read_vps: Pseudopotential generation method:
read_vps: ATM3      Troullier-Martins                       
Total valence charge:    3.00000

read_vps: Pseudopotential includes a core correction:
read_vps: Pseudo-core for xc-correction

xc_check: Exchange-correlation functional:
xc_check: Ceperley-Alder
V l=0 = -2*Zval/r beyond r=  1.7165
V l=1 = -2*Zval/r beyond r=  1.7165
V l=2 = -2*Zval/r beyond r=  1.7165
V l=3 = -2*Zval/r beyond r=  1.6951
All V_l potentials equal beyond r=  1.7165
This should be close to max(r_c) in ps generation
All pots = -2*Zval/r beyond r=  1.7165

VLOCAL1: 99.0% of the norm of Vloc inside     14.733 Ry
VLOCAL1: 99.9% of the norm of Vloc inside     33.577 Ry
atom: Maximum radius for 4*pi*r*r*local-pseudopot. charge    2.04484
atom: Maximum radius for r*vlocal+2*Zval:    1.75994
GHOST: No ghost state for L =  0
GHOST: No ghost state for L =  1
GHOST: No ghost state for L =  2
GHOST: No ghost state for L =  3

KBgen: Kleinman-Bylander projectors: 
   l= 0   rc=  1.897051   el= -0.689821   Ekb=  4.267659   kbcos=  0.294941
   l= 1   rc=  1.920920   el= -0.273582   Ekb= -2.493518   kbcos= -0.316494
   l= 2   rc=  2.044840   el=  0.002410   Ekb= -0.642570   kbcos= -0.014732
   l= 3   rc=  2.149707   el=  0.003543   Ekb= -0.260486   kbcos= -0.002341

KBgen: Total number of  Kleinman-Bylander projectors:   16
atom: -------------------------------------------------------------------------

atom: SANKEY-TYPE ORBITALS:
atom: Selected multiple-zeta basis: split     

SPLIT: Orbitals with angular momentum L= 0

SPLIT: Basis orbitals for state 2s

SPLIT: PAO cut-off radius determined from an
SPLIT: energy shift=  0.020000 Ry

   izeta = 1
                 lambda =    1.000000
                     rc =    4.906010
                 energy =   -0.672079
                kinetic =    0.600553
    potential(screened) =   -1.272632
       potential(ionic) =   -3.301886

   izeta = 2
                 rmatch =    4.170113
              splitnorm =    0.150000
                 energy =   -0.581071
                kinetic =    0.883210
    potential(screened) =   -1.464280
       potential(ionic) =   -3.607314

SPLIT: Orbitals with angular momentum L= 1

SPLIT: Basis orbitals for state 2p

SPLIT: PAO cut-off radius determined from an
SPLIT: energy shift=  0.020000 Ry

   izeta = 1
                 lambda =    1.000000
                     rc =    5.700051
                 energy =   -0.254269
                kinetic =    1.609303
    potential(screened) =   -1.863571
       potential(ionic) =   -3.822590

   izeta = 2
                 rmatch =    4.275693
              splitnorm =    0.150000
                 energy =   -0.140145
                kinetic =    2.432023
    potential(screened) =   -2.572168
       potential(ionic) =   -4.719137

POLgen: Perturbative polarization orbital with L=  2

POLgen: Polarization orbital for state 2p

   izeta = 1
                     rc =    5.700051
                 energy =    0.829041
                kinetic =    1.746766
    potential(screened) =   -0.917724
       potential(ionic) =   -2.618902
atom: Total number of Sankey-type orbitals: 13

atm_pop: Valence configuration (for local Pseudopot. screening):
 2s( 2.00)                                                            
 2p( 1.00)                                                            
Vna: chval, zval:    3.00000   3.00000

Vna:  Cut-off radius for the neutral-atom potential:   5.700051
comcore: Pseudo-core radius Rcore=  2.122997

atom: _________________________________________________________________________

<basis_specs>
===============================================================================
N                    Z=   7    Mass=  14.010        Charge= 0.17977+309
Lmxo=1 Lmxkb= 3    BasisType=split      Semic=F
L=0  Nsemic=0  Cnfigmx=2
          n=1  nzeta=2  polorb=0
            splnorm:   0.15000    
               vcte:    0.0000    
               rinn:    0.0000    
               qcoe:    0.0000    
               qyuk:    0.0000    
               qwid:   0.10000E-01
                rcs:    0.0000      0.0000    
            lambdas:    1.0000      1.0000    
L=1  Nsemic=0  Cnfigmx=2
          n=1  nzeta=2  polorb=1
            splnorm:   0.15000    
               vcte:    0.0000    
               rinn:    0.0000    
               qcoe:    0.0000    
               qyuk:    0.0000    
               qwid:   0.10000E-01
                rcs:    0.0000      0.0000    
            lambdas:    1.0000      1.0000    
-------------------------------------------------------------------------------
L=0  Nkbl=1  erefs: 0.17977+309
L=1  Nkbl=1  erefs: 0.17977+309
L=2  Nkbl=1  erefs: 0.17977+309
L=3  Nkbl=1  erefs: 0.17977+309
===============================================================================
</basis_specs>

atom: Called for N                     (Z =   7)

read_vps: Pseudopotential generation method:
read_vps: ATM3      Troullier-Martins                       
Total valence charge:    5.00000

xc_check: Exchange-correlation functional:
xc_check: Ceperley-Alder
V l=0 = -2*Zval/r beyond r=  1.4606
V l=1 = -2*Zval/r beyond r=  1.4606
V l=2 = -2*Zval/r beyond r=  1.4606
V l=3 = -2*Zval/r beyond r=  1.4606
All V_l potentials equal beyond r=  1.4606
This should be close to max(r_c) in ps generation
All pots = -2*Zval/r beyond r=  1.4606

VLOCAL1: 99.0% of the norm of Vloc inside     20.347 Ry
VLOCAL1: 99.9% of the norm of Vloc inside     46.372 Ry
atom: Maximum radius for 4*pi*r*r*local-pseudopot. charge    1.76189
atom: Maximum radius for r*vlocal+2*Zval:    1.53550
GHOST: No ghost state for L =  0
GHOST: No ghost state for L =  1
GHOST: No ghost state for L =  2
GHOST: No ghost state for L =  3

KBgen: Kleinman-Bylander projectors: 
   l= 0   rc=  1.634559   el= -1.352239   Ekb=  4.901185   kbcos=  0.337501
   l= 1   rc=  1.614250   el= -0.532623   Ekb= -5.544141   kbcos= -0.433040
   l= 2   rc=  1.740002   el=  0.002346   Ekb= -1.331777   kbcos= -0.007563
   l= 3   rc=  1.806505   el=  0.003449   Ekb= -0.515466   kbcos= -0.000994

KBgen: Total number of  Kleinman-Bylander projectors:   16
atom: -------------------------------------------------------------------------

atom: SANKEY-TYPE ORBITALS:
atom: Selected multiple-zeta basis: split     

SPLIT: Orbitals with angular momentum L= 0

SPLIT: Basis orbitals for state 2s

SPLIT: PAO cut-off radius determined from an
SPLIT: energy shift=  0.020000 Ry

   izeta = 1
                 lambda =    1.000000
                     rc =    3.683980
                 energy =   -1.333780
                kinetic =    1.203249
    potential(screened) =   -2.537029
       potential(ionic) =   -8.126274

   izeta = 2
                 rmatch =    2.905100
              splitnorm =    0.150000
                 energy =   -1.138702
                kinetic =    1.810192
    potential(screened) =   -2.948894
       potential(ionic) =   -8.945013

SPLIT: Orbitals with angular momentum L= 1

SPLIT: Basis orbitals for state 2p

SPLIT: PAO cut-off radius determined from an
SPLIT: energy shift=  0.020000 Ry

   izeta = 1
                 lambda =    1.000000
                     rc =    4.280232
                 energy =   -0.512466
                kinetic =    3.598849
    potential(screened) =   -4.111315
       potential(ionic) =   -9.550563

   izeta = 2
                 rmatch =    2.941647
              splitnorm =    0.150000
                 energy =   -0.292244
                kinetic =    5.357522
    potential(screened) =   -5.649767
       potential(ionic) =  -11.693436

POLgen: Perturbative polarization orbital with L=  2

POLgen: Polarization orbital for state 2p

   izeta = 1
                     rc =    4.280232
                 energy =    1.826084
                kinetic =    3.687342
    potential(screened) =   -1.861257
       potential(ionic) =   -6.363951
atom: Total number of Sankey-type orbitals: 13

atm_pop: Valence configuration (for local Pseudopot. screening):
 2s( 2.00)                                                            
 2p( 3.00)                                                            
Vna: chval, zval:    5.00000   5.00000

Vna:  Cut-off radius for the neutral-atom potential:   4.280232

atom: _________________________________________________________________________

prinput: Basis input ----------------------------------------------------------

PAO.BasisType split     

%block ChemicalSpeciesLabel
    1    5 B                       # Species index, atomic number, species label
    2    7 N                       # Species index, atomic number, species label
%endblock ChemicalSpeciesLabel

%block PAO.Basis                 # Define Basis set
B                     2                    # Species label, number of l-shells
 n=2   0   2                         # n, l, Nzeta 
   4.906      4.170   
   1.000      1.000   
 n=2   1   2 P   1                   # n, l, Nzeta, Polarization, NzetaPol
   5.700      4.276   
   1.000      1.000   
N                     2                    # Species label, number of l-shells
 n=2   0   2                         # n, l, Nzeta 
   3.684      2.905   
   1.000      1.000   
 n=2   1   2 P   1                   # n, l, Nzeta, Polarization, NzetaPol
   4.280      2.942   
   1.000      1.000   
%endblock PAO.Basis

prinput: ----------------------------------------------------------------------

coor:   Atomic-coordinates input format  =     Cartesian coordinates
coor:                                          (in Angstroms)

siesta: Atomic coordinates (Bohr) and species
siesta:      0.00000   2.69415   0.00000  1        1
siesta:      0.00000   5.38829   0.00000  2        2
siesta:      0.00000   6.73536   2.33320  1        3
siesta:      0.00000   9.42951   2.33320  2        4
siesta:      0.00000  10.77658   4.66640  1        5
siesta:      0.00000  13.47073   4.66640  2        6
siesta:      0.00000  14.81780   6.99960  1        7
siesta:      0.00000  17.51195   6.99960  2        8
siesta:      0.00000  18.85902   9.33279  1        9
siesta:      0.00000  21.55317   9.33279  2       10
siesta:      0.00000  22.90024  11.66599  1       11
siesta:      0.00000  25.59439  11.66599  2       12
siesta:      0.00000  26.94146  13.99919  1       13
siesta:      0.00000  29.63560  13.99919  2       14
siesta:      0.00000  30.98268  16.33239  1       15
siesta:      0.00000  33.67682  16.33239  2       16
siesta:      0.00000   6.73536  -2.33320  1       17
siesta:      0.00000   9.42951  -2.33320  2       18
siesta:      0.00000  10.77658   0.00000  1       19
siesta:      0.00000  13.47073   0.00000  2       20
siesta:      0.00000  14.81780   2.33320  1       21
siesta:      0.00000  17.51195   2.33320  2       22
siesta:      0.00000  18.85902   4.66640  1       23
siesta:      0.00000  21.55317   4.66640  2       24
siesta:      0.00000  22.90024   6.99960  1       25
siesta:      0.00000  25.59439   6.99960  2       26
siesta:      0.00000  26.94146   9.33279  1       27
siesta:      0.00000  29.63560   9.33279  2       28
siesta:      0.00000  30.98268  11.66599  1       29
siesta:      0.00000  33.67682  11.66599  2       30
siesta:      0.00000  35.02390  13.99919  1       31
siesta:      0.00000  37.71804  13.99919  2       32
siesta:      0.00000  10.77658  -4.66640  1       33
siesta:      0.00000  13.47073  -4.66640  2       34
siesta:      0.00000  14.81780  -2.33320  1       35
siesta:      0.00000  17.51195  -2.33320  2       36
siesta:      0.00000  18.85902   0.00000  1       37
siesta:      0.00000  21.55317   0.00000  2       38
siesta:      0.00000  22.90024   2.33320  1       39
siesta:      0.00000  25.59439   2.33320  2       40
siesta:      0.00000  26.94146   4.66640  1       41
siesta:      0.00000  29.63560   4.66640  2       42
siesta:      0.00000  30.98268   6.99960  1       43
siesta:      0.00000  33.67682   6.99960  2       44
siesta:      0.00000  35.02390   9.33279  1       45
siesta:      0.00000  37.71804   9.33279  2       46
siesta:      0.00000  39.06511  11.66599  1       47
siesta:      0.00000  41.75926  11.66599  2       48
siesta:      0.00000  14.81780  -6.99960  1       49
siesta:      0.00000  17.51195  -6.99960  2       50
siesta:      0.00000  18.85902  -4.66640  1       51
siesta:      0.00000  21.55317  -4.66640  2       52
siesta:      0.00000  22.90024  -2.33320  1       53
siesta:      0.00000  25.59439  -2.33320  2       54
siesta:      0.00000  26.94146   0.00000  1       55
siesta:      0.00000  29.63560   0.00000  2       56
siesta:      0.00000  30.98268   2.33320  1       57
siesta:      0.00000  33.67682   2.33320  2       58
siesta:      0.00000  35.02390   4.66640  1       59
siesta:      0.00000  37.71804   4.66640  2       60
siesta:      0.00000  39.06511   6.99960  1       61
siesta:      0.00000  41.75926   6.99960  2       62
siesta:      0.00000  43.10633   9.33279  1       63
siesta:      0.00000  45.80048   9.33279  2       64
siesta:      0.00000  18.85902  -9.33279  1       65
siesta:      0.00000  21.55317  -9.33279  2       66
siesta:      0.00000  22.90024  -6.99960  1       67
siesta:      0.00000  25.59439  -6.99960  2       68
siesta:      0.00000  26.94146  -4.66640  1       69
siesta:      0.00000  29.63560  -4.66640  2       70
siesta:      0.00000  30.98268  -2.33320  1       71
siesta:      0.00000  33.67682  -2.33320  2       72
siesta:      0.00000  35.02390   0.00000  1       73
siesta:      0.00000  37.71804   0.00000  2       74
siesta:      0.00000  39.06511   2.33320  1       75
siesta:      0.00000  41.75926   2.33320  2       76
siesta:      0.00000  43.10633   4.66640  1       77
siesta:      0.00000  45.80048   4.66640  2       78
siesta:      0.00000  47.14755   6.99960  1       79
siesta:      0.00000  49.84170   6.99960  2       80
siesta:      0.00000  22.90024 -11.66599  1       81
siesta:      0.00000  25.59439 -11.66599  2       82
siesta:      0.00000  26.94146  -9.33279  1       83
siesta:      0.00000  29.63560  -9.33279  2       84
siesta:      0.00000  30.98268  -6.99960  1       85
siesta:      0.00000  33.67682  -6.99960  2       86
siesta:      0.00000  35.02390  -4.66640  1       87
siesta:      0.00000  37.71804  -4.66640  2       88
siesta:      0.00000  39.06511  -2.33320  1       89
siesta:      0.00000  41.75926  -2.33320  2       90
siesta:      0.00000  43.10633  -0.00000  1       91
siesta:      0.00000  45.80048  -0.00000  2       92
siesta:      0.00000  47.14755   2.33320  1       93
siesta:      0.00000  49.84170   2.33320  2       94
siesta:      0.00000  51.18877   4.66640  1       95
siesta:      0.00000  53.88292   4.66640  2       96
siesta:      0.00000  26.94146 -13.99919  1       97
siesta:      0.00000  29.63560 -13.99919  2       98
siesta:      0.00000  30.98268 -11.66599  1       99
siesta:      0.00000  33.67682 -11.66599  2      100
siesta:      0.00000  35.02390  -9.33279  1      101
siesta:      0.00000  37.71804  -9.33279  2      102
siesta:      0.00000  39.06511  -6.99960  1      103
siesta:      0.00000  41.75926  -6.99960  2      104
siesta:      0.00000  43.10633  -4.66640  1      105
siesta:      0.00000  45.80048  -4.66640  2      106
siesta:      0.00000  47.14755  -2.33320  1      107
siesta:      0.00000  49.84170  -2.33320  2      108
siesta:      0.00000  51.18877   0.00000  1      109
siesta:      0.00000  53.88292   0.00000  2      110
siesta:      0.00000  55.22999   2.33320  1      111
siesta:      0.00000  57.92414   2.33320  2      112
siesta:      0.00000  30.98268 -16.33239  1      113
siesta:      0.00000  33.67682 -16.33239  2      114
siesta:      0.00000  35.02390 -13.99919  1      115
siesta:      0.00000  37.71804 -13.99919  2      116
siesta:      0.00000  39.06511 -11.66599  1      117
siesta:      0.00000  41.75926 -11.66599  2      118
siesta:      0.00000  43.10633  -9.33279  1      119
siesta:      0.00000  45.80048  -9.33279  2      120
siesta:      0.00000  47.14755  -6.99960  1      121
siesta:      0.00000  49.84170  -6.99960  2      122
siesta:      0.00000  51.18877  -4.66640  1      123
siesta:      0.00000  53.88292  -4.66640  2      124
siesta:      0.00000  55.22999  -2.33320  1      125
siesta:      0.00000  57.92414  -2.33320  2      126
siesta:      0.00000  59.27121   0.00000  1      127
siesta:      0.00000  61.96535   0.00000  2      128

siesta: System type = slab      

initatomlists: Number of atoms, orbitals, and projectors:    128  1664  2048

siesta: ******************** Simulation parameters ****************************
siesta:
siesta: The following are some of the parameters of the simulation.
siesta: A complete list of the parameters used, including default values,
siesta: can be found in file out.fdf
siesta:
redata: Non-Collinear-spin run           =     F
redata: SpinPolarized (Up/Down) run      =     F
redata: Number of spin components        =     1
redata: Long output                      =     F
redata: Number of Atomic Species         =        2
redata: Charge density info will appear in .RHO file
redata: Write Mulliken Pop.              =     NO
redata: Mesh Cutoff                      =   100.0000  Ry
redata: Net charge of the system         =     0.0000 |e|
redata: Min. number of SCF Iter          =        0
redata: Max. number of SCF Iter          =       50
redata: Mix DM or H after convergence    =     F
redata: Recompute H after scf cycle      =     F
redata: Performing Pulay mixing using    =     3 iterations
redata: Mix DM in first SCF step ?       =     F
redata: Write Pulay info on disk?        =     F
redata: Discard 1st Pulay DM after  kick =     F
redata: New DM Mixing Weight             =     0.3000
redata: New DM Occupancy tolerance       = 0.000000000001
redata: No kicks to SCF
redata: DM Mixing Weight for Kicks       =     0.5000
redata: DM Tolerance for SCF             =     0.000100
redata: Require (free) Energy convergence in SCF =     F
redata: DM (free)Energy tolerance for SCF =     0.000010 eV
redata: Require Harris convergence for SCF =     F
redata: DM Harris energy tolerance for SCF =     0.000010 eV
redata: Using Saved Data (generic)   =     F
redata: Use continuation files for DM    =     F
redata: Neglect nonoverlap interactions  =     F
redata: Method of Calculation            =     old SLEPc
redata: Fix the spin of the system       =     F
redata: Dynamics option                  =     Single-point calculation
redata: ***********************************************************************
Total number of electrons:   512.000000
Total ionic charge:   512.000000

* ProcessorY, Blocksize:    8  13


* Orbital distribution balance (max,min):    13    13

 Kpoints in:            1 . Kpoints trimmed:            1

siesta: k-grid: Number of k-points =     1
siesta: k-grid: Cutoff (effective) =     9.877 Ang
siesta: k-grid: Supercell and displacements
siesta: k-grid:    1   0   0      0.000
siesta: k-grid:    0   1   0      0.000
siesta: k-grid:    0   0   1      0.000

                     ====================================
                        Single-point calculation
                     ====================================

outcell: Unit cell vectors (Ang):
       20.000000    0.000000    0.000000
        0.000000   17.108160    9.877401
        0.000000   17.108160   -9.877401

outcell: Cell vector modules (Ang)   :   20.000000   19.754802   19.754802
outcell: Cell angles (23,13,12) (deg):     60.0000     90.0000     90.0000
outcell: Cell volume (Ang**3)        :   6759.3661
New_DM. Step:     1
Initializing Density Matrix...
New grid distribution:   1
           1       1:   64    1:    7    1:    4
           2       1:   64    1:    7    5:    8
           3       1:   64    1:    7    9:   12
           4       1:   64    1:    7   13:   16
           5       1:   64    1:    7   17:   20
           6       1:   64    1:    7   21:   24
           7       1:   64    1:    7   25:   27
           8       1:   64    1:    7   28:   30
           9       1:   64    1:    7   31:   33
          10       1:   64    1:    7   34:   36
          11       1:   64    1:    7   37:   39
          12       1:   64    1:    7   40:   42
          13       1:   64    1:    7   43:   45
          14       1:   64    1:    7   46:   48
          15       1:   64    1:    7   49:   51
          16       1:   64    1:    7   52:   54
          17       1:   64    8:   14    1:    4
          18       1:   64    8:   14    5:    8
          19       1:   64    8:   14    9:   12
          20       1:   64    8:   14   13:   16
          21       1:   64    8:   14   17:   20
          22       1:   64    8:   14   21:   24
          23       1:   64    8:   14   25:   27
          24       1:   64    8:   14   28:   30
          25       1:   64    8:   14   31:   33
          26       1:   64    8:   14   34:   36
          27       1:   64    8:   14   37:   39
          28       1:   64    8:   14   40:   42
          29       1:   64    8:   14   43:   45
          30       1:   64    8:   14   46:   48
          31       1:   64    8:   14   49:   51
          32       1:   64    8:   14   52:   54
          33       1:   64   15:   21    1:    4
          34       1:   64   15:   21    5:    8
          35       1:   64   15:   21    9:   12
          36       1:   64   15:   21   13:   16
          37       1:   64   15:   21   17:   20
          38       1:   64   15:   21   21:   24
          39       1:   64   15:   21   25:   27
          40       1:   64   15:   21   28:   30
          41       1:   64   15:   21   31:   33
          42       1:   64   15:   21   34:   36
          43       1:   64   15:   21   37:   39
          44       1:   64   15:   21   40:   42
          45       1:   64   15:   21   43:   45
          46       1:   64   15:   21   46:   48
          47       1:   64   15:   21   49:   51
          48       1:   64   15:   21   52:   54
          49       1:   64   22:   28    1:    4
          50       1:   64   22:   28    5:    8
          51       1:   64   22:   28    9:   12
          52       1:   64   22:   28   13:   16
          53       1:   64   22:   28   17:   20
          54       1:   64   22:   28   21:   24
          55       1:   64   22:   28   25:   27
          56       1:   64   22:   28   28:   30
          57       1:   64   22:   28   31:   33
          58       1:   64   22:   28   34:   36
          59       1:   64   22:   28   37:   39
          60       1:   64   22:   28   40:   42
          61       1:   64   22:   28   43:   45
          62       1:   64   22:   28   46:   48
          63       1:   64   22:   28   49:   51
          64       1:   64   22:   28   52:   54
          65       1:   64   29:   35    1:    4
          66       1:   64   29:   35    5:    8
          67       1:   64   29:   35    9:   12
          68       1:   64   29:   35   13:   16
          69       1:   64   29:   35   17:   20
          70       1:   64   29:   35   21:   24
          71       1:   64   29:   35   25:   27
          72       1:   64   29:   35   28:   30
          73       1:   64   29:   35   31:   33
          74       1:   64   29:   35   34:   36
          75       1:   64   29:   35   37:   39
          76       1:   64   29:   35   40:   42
          77       1:   64   29:   35   43:   45
          78       1:   64   29:   35   46:   48
          79       1:   64   29:   35   49:   51
          80       1:   64   29:   35   52:   54
          81       1:   64   36:   42    1:    4
          82       1:   64   36:   42    5:    8
          83       1:   64   36:   42    9:   12
          84       1:   64   36:   42   13:   16
          85       1:   64   36:   42   17:   20
          86       1:   64   36:   42   21:   24
          87       1:   64   36:   42   25:   27
          88       1:   64   36:   42   28:   30
          89       1:   64   36:   42   31:   33
          90       1:   64   36:   42   34:   36
          91       1:   64   36:   42   37:   39
          92       1:   64   36:   42   40:   42
          93       1:   64   36:   42   43:   45
          94       1:   64   36:   42   46:   48
          95       1:   64   36:   42   49:   51
          96       1:   64   36:   42   52:   54
          97       1:   64   43:   48    1:    4
          98       1:   64   43:   48    5:    8
          99       1:   64   43:   48    9:   12
         100       1:   64   43:   48   13:   16
         101       1:   64   43:   48   17:   20
         102       1:   64   43:   48   21:   24
         103       1:   64   43:   48   25:   27
         104       1:   64   43:   48   28:   30
         105       1:   64   43:   48   31:   33
         106       1:   64   43:   48   34:   36
         107       1:   64   43:   48   37:   39
         108       1:   64   43:   48   40:   42
         109       1:   64   43:   48   43:   45
         110       1:   64   43:   48   46:   48
         111       1:   64   43:   48   49:   51
         112       1:   64   43:   48   52:   54
         113       1:   64   49:   54    1:    4
         114       1:   64   49:   54    5:    8
         115       1:   64   49:   54    9:   12
         116       1:   64   49:   54   13:   16
         117       1:   64   49:   54   17:   20
         118       1:   64   49:   54   21:   24
         119       1:   64   49:   54   25:   27
         120       1:   64   49:   54   28:   30
         121       1:   64   49:   54   31:   33
         122       1:   64   49:   54   34:   36
         123       1:   64   49:   54   37:   39
         124       1:   64   49:   54   40:   42
         125       1:   64   49:   54   43:   45
         126       1:   64   49:   54   46:   48
         127       1:   64   49:   54   49:   51
         128       1:   64   49:   54   52:   54

InitMesh: MESH =   128 x   108 x   108 =     1492992
InitMesh: (bp) =    64 x    54 x    54 =      186624
InitMesh: Mesh cutoff (required, used) =   100.000   110.139 Ry
ExtMesh (bp) on 0 =   104 x    47 x    44 =      215072
New grid distribution:   2
           1       7:   59    1:   14    1:   14
           2       5:    6   41:   54    1:   13
           3      62:   63    1:   13    1:   13
           4      64:   64    1:   13   14:   27
           5      60:   61    1:   14   15:   27
           6       5:    6    1:   13    1:   13
           7       1:    1   15:   27   14:   27
           8       7:   59    1:   14   28:   41
           9      60:   61    1:   14   28:   41
          10       5:    6    1:   13   14:   27
          11       5:    6    1:   13   28:   40
          12       1:    1    1:   13   28:   40
          13       7:   59    1:   14   42:   54
          14       5:    6    1:   13   41:   54
          15       2:    2    1:   14   41:   54
          16       2:    2    1:   13    1:   13
          17      60:   61    1:   14    1:   14
          18       3:    4    1:   13    1:   13
          19       1:    1   14:   27    1:   13
          20       3:    4    1:   13   14:   27
          21       7:   59    1:   14   15:   27
          22      62:   63    1:   13   14:   27
          23       1:    1    1:   13    1:   13
          24       3:    4    1:   13   28:   40
          25       5:    6   41:   54   14:   27
          26       3:    4   14:   27    1:   13
          27      62:   63    1:   13   28:   40
          28       2:    2    1:   13   28:   40
          29      62:   63   14:   27   14:   27
          30      60:   61    1:   14   42:   54
          31       1:    1    1:   14   41:   54
          32       1:    1   28:   40    1:   13
          33       7:   59   15:   27    1:   14
          34      62:   63   14:   27    1:   13
          35       1:    1    1:   14   14:   27
          36       2:    2   14:   27    1:   13
          37       5:    6   14:   27    1:   13
          38      60:   61   15:   27   15:   27
          39       2:    2   15:   27   14:   27
          40       7:   59   15:   27   28:   41
          41      62:   63   14:   27   28:   40
          42       2:    2    1:   14   14:   27
          43       1:    1   14:   27   28:   40
          44       3:    4   14:   27   41:   54
          45       7:   59   15:   27   42:   54
          46      62:   63    1:   13   41:   54
          47      60:   61   15:   27   42:   54
          48       2:    2   15:   27   41:   54
          49      60:   61   15:   27    1:   14
          50       3:    4   28:   40    1:   13
          51      64:   64   14:   27    1:   13
          52       3:    4   14:   27   14:   27
          53       7:   59   15:   27   15:   27
          54       3:    4   28:   40   14:   27
          55       1:    1   28:   41   14:   27
          56       2:    2   14:   27   28:   40
          57       5:    6   14:   27   28:   40
          58      64:   64   14:   27   14:   27
          59      64:   64   28:   40    1:   13
          60      62:   63   14:   27   41:   54
          61       5:    6   14:   27   41:   54
          62      62:   63   28:   40   41:   54
          63      64:   64   14:   27   41:   54
          64       1:    1   15:   27   41:   54
          65       7:   59   28:   41    1:   14
          66      62:   63   28:   40    1:   13
          67       2:    2   28:   40    1:   13
          68       5:    6   28:   40   14:   27
          69      62:   63   28:   40   14:   27
          70       2:    2   28:   41   14:   27
          71      64:   64   28:   40   14:   27
          72       7:   59   28:   41   28:   41
          73       5:    6   14:   27   14:   27
          74      62:   63   28:   40   28:   40
          75      64:   64   28:   40   28:   40
          76      60:   61   28:   41   42:   54
          77       7:   59   28:   41   42:   54
          78       5:    6   28:   40   41:   54
          79       1:    1   28:   41   41:   54
          80      64:   64    1:   13    1:   13
          81       3:    4   41:   54    1:   13
          82       5:    6   28:   40    1:   13
          83      64:   64   41:   54    1:   13
          84      62:   63   41:   54   14:   27
          85       7:   59   28:   41   15:   27
          86      60:   61   28:   41   15:   27
          87      64:   64    1:   13   28:   40
          88       3:    4   28:   40   28:   40
          89      60:   61   28:   41    1:   14
          90      62:   63   41:   54   28:   40
          91       5:    6   28:   40   28:   40
          92      64:   64   41:   54   28:   40
          93      60:   61   28:   41   28:   41
          94       3:    4   28:   40   41:   54
          95       2:    2   28:   41   41:   54
          96       1:    1   28:   40   28:   40
          97       7:   59   42:   54    1:   14
          98      62:   63   41:   54    1:   13
          99      64:   64   28:   40   41:   54
         100       1:    1   42:   54   14:   27
         101       3:    4   14:   27   28:   40
         102      60:   61   42:   54   15:   27
         103       2:    2   42:   54   14:   27
         104       7:   59   42:   54   28:   41
         105       5:    6   41:   54   28:   40
         106      64:   64   14:   27   28:   40
         107       1:    1   41:   54   28:   40
         108       5:    6   41:   54   41:   54
         109       7:   59   42:   54   42:   54
         110       3:    4    1:   13   41:   54
         111      60:   61   42:   54   42:   54
         112       2:    2   42:   54   41:   54
         113      60:   61   42:   54    1:   14
         114      64:   64    1:   13   41:   54
         115       1:    1   41:   54    1:   13
         116       3:    4   41:   54   14:   27
         117       7:   59   42:   54   15:   27
         118      64:   64   41:   54   14:   27
         119       2:    2   28:   40   28:   40
         120       3:    4   41:   54   28:   40
         121      60:   61   42:   54   28:   41
         122       2:    2   41:   54    1:   13
         123       2:    2   41:   54   28:   40
         124      62:   63   41:   54   41:   54
         125       3:    4   41:   54   41:   54
         126      60:   61   15:   27   28:   41
         127      64:   64   41:   54   41:   54
         128       1:    1   42:   54   41:   54
New grid distribution:   3
           1      11:   57    1:   14    1:   14
           2       8:   10    1:   14    1:   13
           3       4:    5    1:   14    1:   14
           4       6:    7    1:   13   14:   27
           5       1:    3    1:   14   15:   27
           6      63:   64    1:   14    1:   14
           7      58:   59    1:   14   15:   27
           8      11:   57    1:   14   28:   41
           9       1:    3    1:   14   28:   41
          10       8:   10    1:   14   28:   40
          11      63:   64    1:   14   28:   41
          12       4:    5   42:   54    1:   14
          13      11:   57    1:   14   42:   54
          14      60:   62    1:   14   42:   54
          15       6:    7   28:   41    1:   13
          16       4:    5    1:   14   42:   54
          17      60:   62    1:   14    1:   14
          18      60:   62   15:   27   15:   27
          19      58:   59    1:   14    1:   14
          20       6:    7   42:   54    1:   13
          21      11:   57    1:   14   15:   27
          22       8:   10    1:   13   14:   27
          23      63:   64    1:   14   15:   27
          24      58:   59    1:   14   28:   41
          25      60:   62    1:   14   28:   41
          26       4:    5    1:   14   28:   41
          27       6:    7    1:   14   28:   40
          28       1:    3    1:   14   42:   54
          29       1:    3    1:   14    1:   14
          30       8:   10    1:   13   41:   54
          31      63:   64    1:   14   42:   54
          32       4:    5   15:   27   15:   27
          33      11:   57   15:   27    1:   14
          34       1:    3   15:   27    1:   14
          35      58:   59    1:   14   42:   54
          36      58:   59   15:   27    1:   14
          37       1:    3   15:   27   15:   27
          38       6:    7   14:   27   14:   27
          39      58:   59   15:   27   15:   27
          40      11:   57   15:   27   28:   41
          41       8:   10   14:   27   14:   27
          42      60:   62   15:   27   28:   41
          43      63:   64   15:   27   28:   41
          44       4:    5   15:   27   28:   41
          45      11:   57   15:   27   42:   54
          46       1:    3   15:   27   42:   54
          47       6:    7   14:   27   41:   54
          48       4:    5   15:   27   42:   54
          49       1:    3   28:   41    1:   14
          50       8:   10   15:   27    1:   13
          51       4:    5   28:   41    1:   14
          52      63:   64   15:   27    1:   14
          53      11:   57   15:   27   15:   27
          54       6:    7    1:   14    1:   13
          55      63:   64   15:   27   15:   27
          56       1:    3   15:   27   28:   41
          57       1:    3   42:   54    1:   14
          58       8:   10   15:   27   28:   40
          59      58:   59   15:   27   28:   41
          60       6:    7   15:   27   28:   40
          61       8:   10   14:   27   41:   54
          62      60:   62   15:   27   42:   54
          63       4:    5    1:   14   15:   27
          64      58:   59   15:   27   42:   54
          65      11:   57   28:   41    1:   14
          66      58:   59   28:   41    1:   14
          67      63:   64   15:   27   42:   54
          68       8:   10   28:   40   14:   27
          69       1:    3   28:   41   15:   27
          70       6:    7    1:   13   41:   54
          71       6:    7   28:   40   14:   27
          72      11:   57   28:   41   28:   41
          73       1:    3   28:   41   28:   41
          74       8:   10   28:   41   28:   40
          75      63:   64   28:   41   28:   41
          76       6:    7   28:   41   28:   40
          77      11:   57   28:   41   42:   54
          78       8:   10   28:   40   41:   54
          79      63:   64   28:   41   42:   54
          80      58:   59   42:   54   15:   27
          81      60:   62   28:   41    1:   14
          82       8:   10   28:   41    1:   13
          83      63:   64   28:   41    1:   14
          84      58:   59   28:   41   15:   27
          85      11:   57   28:   41   15:   27
          86      60:   62   28:   41   15:   27
          87      63:   64   28:   41   15:   27
          88      58:   59   28:   41   28:   41
          89      60:   62   28:   41   28:   41
          90       1:    3   42:   54   15:   27
          91       4:    5   28:   41   28:   41
          92       6:    7   42:   54   28:   40
          93      60:   62    1:   14   15:   27
          94      60:   62   28:   41   42:   54
          95       6:    7   28:   40   41:   54
          96       6:    7   15:   27    1:   13
          97      11:   57   42:   54    1:   14
          98      60:   62   42:   54    1:   14
          99      58:   59   28:   41   42:   54
         100      58:   59   42:   54    1:   14
         101      60:   62   42:   54   15:   27
         102       6:    7   41:   54   14:   27
         103      63:   64   42:   54   15:   27
         104      11:   57   42:   54   28:   41
         105      60:   62   15:   27    1:   14
         106       1:    3   42:   54   28:   41
         107       4:    5   42:   54   28:   41
         108      58:   59   42:   54   28:   41
         109      11:   57   42:   54   42:   54
         110       1:    3   42:   54   42:   54
         111       6:    7   41:   54   41:   54
         112      58:   59   42:   54   42:   54
         113       8:   10   42:   54    1:   13
         114       4:    5   28:   41   15:   27
         115      63:   64   42:   54    1:   14
         116       8:   10   41:   54   14:   27
         117      11:   57   42:   54   15:   27
         118       4:    5   28:   41   42:   54
         119       4:    5   42:   54   15:   27
         120      60:   62   42:   54   28:   41
         121       1:    3   28:   41   42:   54
         122       8:   10   42:   54   28:   40
         123      63:   64   42:   54   28:   41
         124       4:    5   42:   54   42:   54
         125       8:   10   41:   54   41:   54
         126      60:   62   42:   54   42:   54
         127       4:    5   15:   27    1:   14
         128      63:   64   42:   54   42:   54
Setting up quadratic distribution...
ExtMesh (bp) on 0 =    93 x    54 x    54 =      271188
PhiOnMesh: Number of (b)points on node 0 =                10388
PhiOnMesh: nlist on node 0 =                42938
QETSC: Last update           = Nov 14, 2017
QETSC: Number of ranks       =         128
QETSC: Number of slices      =          16
QETSC: Number of ranks/slice =           8
QETSC: Number of evals/slice =  16.00
QETSC: Number of req. evals  =         256
QETSC: Number of rows (all)  =        1664
QETSC: Number of rows (max)  =          13
QETSC: Number of rows (min)  =          13
QETSC: Number of nonzeros    =     1024640
QETSC: Nonzero % (all)       =  37.01
QETSC: Nonzero % (max)       =  40.78
QETSC: Nonzero % (min)       =  33.23
QETSC: Density option        =           0
QETSC: Bin type given        =           7
QETSC: Bin buffer given      =   0.01
QETSC: Diff thresh           =   0.10
QETSC: Infinity type         =           2
QETSC: Inertia type          =           1
 QETSC: Shifts, inertias         =
 -Infinity     0
    -2.300     0
    -2.147     0
    -1.993     0
    -1.840     7
    -1.687    37
    -1.533    64
    -1.380    64
    -1.227    73
    -1.073   115
    -0.920   167
    -0.767   209
    -0.613   250
    -0.460   256
    -0.307   256
    -0.153   265
     0.000   289
 QETSc: Custers,iter,crange,npcmax,trial           1   9.1999999999999998E-002          34           3
-1.9057142857142855E+00
-1.7939999999999998E+00
-1.7020000000000000E+00
-1.6071604938271604E+00
-1.5390123456790121E+00
-1.2948148148148146E+00
-1.1865079365079365E+00
-1.0915873015873014E+00
-9.9666666666666659E-01
-9.0174603174603163E-01
-8.0682539682539678E-01
-7.1430894308943083E-01
-6.2081300813008122E-01
-5.3666666666666663E-01
-5.1111111111111107E-01
 QETSC: Bins             =
              -Infinity
-1.9933333333333332E+00
-1.8833714285714283E+00
-1.7755999999999998E+00
-1.6830320987654321E+00
-1.5935308641975308E+00
-1.4901728395061726E+00
-1.2731534391534389E+00
-1.1675238095238094E+00
-1.0726031746031746E+00
-9.7768253968253960E-01
-8.8276190476190464E-01
-7.8832210607820363E-01
-6.9560975609756093E-01
-6.0398373983739828E-01
-5.3155555555555556E-01
-4.5999999999999996E-01
QETSC: Started iter            1
QETSC: Bin type used         =           7
QETSC: Buffer used           =   0.0000000000000000E+00
QETSC: EPS interval          = -Infinity,    -0.460
QETSC: Inertia type          =           1
SLEPc: EPSSolve time = 5 9.537e-07
SLEPc: EPSSolve time = 0 9.537e-07
SLEPc: EPSSolve time = 6 -0.000e+00
SLEPc: EPSSolve time = 15 9.537e-07
SLEPc: EPSSolve time = 1 2.468e-01
SLEPc: EPSSolve time = 14 3.620e-01
SLEPc: EPSSolve time = 3 4.342e-01
SLEPc: EPSSolve time = 2 4.786e-01
SLEPc: EPSSolve time = 4 4.788e-01
SLEPc: EPSSolve time = 13 4.936e-01
SLEPc: EPSSolve time = 8 5.119e-01
SLEPc: EPSSolve time = 7 5.546e-01
SLEPc: EPSSolve time = 12 6.044e-01
SLEPc: EPSSolve time = 9 7.185e-01
SLEPc: EPSSolve time = 11 7.413e-01
SLEPc: EPSSolve time = 10 7.962e-01
 QETSC: Eigenvalues         =
-1.8990629079749910E+00
-1.8776497417809141E+00
-1.8776497417809093E+00
-1.8776497417808664E+00
-1.8776497417808589E+00
-1.8776497412499411E+00
-1.8776497412499351E+00
-1.8359356768354880E+00
-1.8359356768354858E+00
-1.8359356759590213E+00
-1.8359356759590200E+00
-1.8359356759589052E+00
-1.8359356759589027E+00
-1.8159566101337399E+00
-1.8159566101336182E+00
-1.8159566091456019E+00
-1.8158717903500399E+00
-1.8158717903499175E+00
-1.8158717891229048E+00
-1.7598581988968185E+00
-1.7598581988967976E+00
-1.7598581988967914E+00
-1.7598581988967841E+00
-1.7598581985118296E+00
-1.7598581985118240E+00
-1.7597836534845748E+00
-1.7597836534845483E+00
-1.7597836534188465E+00
-1.7597836534188180E+00
-1.7597836534188178E+00
-1.7597836534188105E+00
-1.7293050945455541E+00
-1.7293050945455490E+00
-1.7293050945451778E+00
-1.7293050945451724E+00
-1.7293050941752941E+00
-1.7293050941752932E+00
-1.6846925891238707E+00
-1.6846925891235960E+00
-1.6846925891026487E+00
-1.6846603729480567E+00
-1.6846603724776161E+00
-1.6846603724773386E+00
-1.6807872725422799E+00
-1.6807872725422797E+00
-1.6807872725419744E+00
-1.6807872725419744E+00
-1.6807872722350197E+00
-1.6807872722350190E+00
-1.6807829426677363E+00
-1.6807829426677350E+00
-1.6807829424866181E+00
-1.6807829424866176E+00
-1.6807829424863101E+00
-1.6807829424863099E+00
-1.6766989137327575E+00
-1.6766776369847669E+00
-1.6766776361318110E+00
-1.6422271209089991E+00
-1.6422271209089987E+00
-1.6422271205430523E+00
-1.6422271205430521E+00
-1.6422271205427692E+00
-1.6422271205427688E+00
-1.2609631357271143E+00
-1.2608420968925329E+00
-1.2608420791254173E+00
-1.2266931255083002E+00
-1.2266931255082942E+00
-1.2266931255075946E+00
-1.2266931255075897E+00
-1.2266931184276582E+00
-1.2266931184276397E+00
-1.2266036483508778E+00
-1.2266036483508753E+00
-1.2266036321984841E+00
-1.2266036321984770E+00
-1.2266036321977760E+00
-1.2266036321977722E+00
-1.2188460704084310E+00
-1.2188460704084234E+00
-1.2188460704074739E+00
-1.2188460704074706E+00
-1.2188460639200103E+00
-1.2188460639200038E+00
-1.1736649132462333E+00
-1.1736649132450387E+00
-1.1736649049619365E+00
-1.1735750329275534E+00
-1.1735750075620415E+00
-1.1735750075608611E+00
-1.1731935013965546E+00
-1.1731935013965540E+00
-1.1731935013956956E+00
-1.1731935013956951E+00
-1.1731934942873350E+00
-1.1731934942873341E+00
-1.0941687224950480E+00
-1.0941687224950469E+00
-1.0941687141278325E+00
-1.0941687141278318E+00
-1.0941687141272813E+00
-1.0941687141272793E+00
-1.0892258211542216E+00
-1.0892258211542198E+00
-1.0892258211541250E+00
-1.0892258211541210E+00
-1.0892258154266707E+00
-1.0892258154266681E+00
-1.0891193251562132E+00
-1.0891193251562092E+00
-1.0891193182429306E+00
-1.0891193182429286E+00
-1.0891193182428325E+00
-1.0891193182428291E+00
-1.0486869812729058E+00
-1.0486869812721389E+00
-1.0486869699972112E+00
-1.0485607749588717E+00
-1.0485607749580970E+00
-1.0485607660711667E+00
-9.9171983282799270E-01
-9.9171983282742726E-01
-9.9171982237174894E-01
-9.9157454612561080E-01
-9.9157454612504192E-01
-9.9157453730047096E-01
-9.8382135933135617E-01
-9.8382135933135562E-01
-9.8382135933115566E-01
-9.8382135933115467E-01
-9.8382134521302766E-01
-9.8382134521302644E-01
-9.8373074284194340E-01
-9.8373074284194195E-01
-9.8373074284174111E-01
-9.8373074284173934E-01
-9.8373074251975545E-01
-9.8373074251975368E-01
-9.5468217644417552E-01
-9.3673021536980061E-01
-9.3673019344826303E-01
-9.3665274240072360E-01
-9.3485086720587895E-01
-9.3485086720587185E-01
-9.3485086720573707E-01
-9.3485086720573285E-01
-9.3485085296680404E-01
-9.3485085296680070E-01
-9.3480390927630486E-01
-9.3480390927630175E-01
-9.3480389915463713E-01
-9.3480389915463069E-01
-9.3480389915450268E-01
-9.3480389915449291E-01
-9.2653214744030865E-01
-9.2653214744029810E-01
-9.2653213598000927E-01
-9.2653213598000739E-01
-9.2653213597920914E-01
-9.2653213597920558E-01
-9.2548937381001595E-01
-9.2548937381001384E-01
-9.2548937381001173E-01
-9.2548937380999174E-01
-9.2548937373267259E-01
-9.2548937373264628E-01
-9.1319758180624877E-01
-9.1319758180624644E-01
-9.1319756726883983E-01
-9.1319756726883705E-01
-9.1319756726880719E-01
-9.1319756726880419E-01
-8.6891514934272052E-01
-8.6891514934271996E-01
-8.6891514913677736E-01
-8.6891514913677637E-01
-8.6891514913677537E-01
-8.6891514913677237E-01
-8.4996053067053234E-01
-8.4996053067038124E-01
-8.4996052315729564E-01
-8.4988170535989760E-01
-8.4988166873829907E-01
-8.4988166873816273E-01
-8.4652830053380157E-01
-8.4652830053378336E-01
-8.4652830053330841E-01
-8.4652830053328187E-01
-8.4652828625493637E-01
-8.4652828625492516E-01
-8.4184426065418827E-01
-8.4184426065418039E-01
-8.4184426052433492E-01
-8.4182613597507527E-01
-8.4182613597506784E-01
-8.4182613554112373E-01
-8.1396040407524850E-01
-8.1396040407523795E-01
-8.1396040407483494E-01
-8.1396040407481995E-01
-8.1396039179130819E-01
-8.1396039179129487E-01
-7.7314435064078069E-01
-7.7314435064078013E-01
-7.7314433738014943E-01
-7.7314433738014854E-01
-7.7314433737993371E-01
-7.7314433737993193E-01
-7.6566079673631937E-01
-7.6566079673631382E-01
-7.6566079659532549E-01
-7.6566079659532382E-01
-7.6566079659531572E-01
-7.6566079659531039E-01
-7.6564340753040394E-01
-7.6564340753039606E-01
-7.6564340753039029E-01
-7.6564340753037186E-01
-7.6564340733194436E-01
-7.6564340733194258E-01
-7.3500415762101223E-01
-7.3500414145871140E-01
-7.2331350282929052E-01
-7.2331350282928297E-01
-7.2331350282927076E-01
-7.2331350282926588E-01
-7.2331350225739488E-01
-7.2331350225739122E-01
-6.6233106881987291E-01
-6.6233106821139176E-01
-6.6233106821136722E-01
-6.6231228442892276E-01
-6.6231228407786280E-01
-6.6231228407783815E-01
-6.5585371776356327E-01
-6.5585371776356305E-01
-6.5585371717980823E-01
-6.5585371717980800E-01
-6.5585371717979968E-01
-6.5585371717979957E-01
-6.5583408615431904E-01
-6.5583408615431837E-01
-6.5583408585679182E-01
-6.5583408585679026E-01
-6.5583408585678460E-01
-6.5583408585678338E-01
-6.4898019788622041E-01
-6.4898019714265198E-01
-6.4894978467307241E-01
-6.0190582123207992E-01
-6.0190582123207959E-01
-6.0190582123206804E-01
-6.0190582123206759E-01
-6.0190582087246847E-01
-6.0190582087246836E-01
QETSC: Iter time (min)       =     1   1.14
QETSC: Iter time (max)       =     1   1.15
QETSC: Iter time (avg)       =     1   1.14
QETSC: Bin scores            =     1   2.12   0.16
QETSC: Empty bins            =     1           5
QETSC: Max,min eigs          =     1          34           1
QETSC: Max,min dists         =     1 9.427E-02 2.078E-03
QETSC: Bad bins              =     1           8           8
QETSC: Max neigs bin         =     1          11
QETSC: Max,min dist bins     =     1           2          15
QETSC: Num. of conv. evals   =     1         256
QETSC: Eigenvalue (1)        =     1  -1.8990629079749910E+00
QETSC: Eigenvalue (nocc)     =     1  -6.0190582087246836E-01
QETSC: Max differrence       =     1   1.8990629079749910E+00
QETSC: Safe iteration        =     1      F
QETSC: Finished iter         =           1
 *****************************************************************

siesta: Program's energy decomposition (eV):
siesta: Ebs     =     -7870.928862
siesta: Eions   =     34808.632627
siesta: Ena     =      5967.489810
siesta: Ekin    =     13943.623183
siesta: Enl     =     -1203.570839
siesta: DEna    =        -0.000156
siesta: DUscf   =         0.000000
siesta: DUext   =         0.000000
siesta: Exc     =     -6682.477088
siesta: eta*DQ  =         0.000000
siesta: Emadel  =         0.000000
siesta: Emeta   =         0.000000
siesta: Emolmec =         0.000000
siesta: Ekinion =         0.000000
siesta: Eharris =    -22855.459788
siesta: Etot    =    -22783.567717
siesta: FreeEng =    -22783.567717
timer: Routine,Calls,Time,% =    IterSCF     1       1.336  30.84
 QETSC: Shifts, inertias         =
 -Infinity     0
    -2.300     0
    -2.147     0
    -1.993     0
    -1.840     0
    -1.687     0
    -1.533     7
    -1.380    37
    -1.227    64
    -1.073    64
    -0.920    85
    -0.767   115
    -0.613   158
    -0.460   221
    -0.307   250
    -0.153   256
     0.000   265
 QETSc: Custers,iter,crange,npcmax,trial           2  0.10222222222222221               34           2
-1.5990476190476188E+00
-1.4771111111111110E+00
-1.3743209876543210E+00
-1.2720987654320988E+00
-1.2323456790123455E+00
-9.7841269841269829E-01
-8.7399999999999989E-01
-7.7177777777777767E-01
-6.6682170542635655E-01
-5.6708994708994709E-01
-4.8433862433862429E-01
-3.8068965517241377E-01
-2.8111111111111109E-01
-2.0444444444444443E-01
-1.5333333333333332E-01
 QETSC: Bins             =
              -Infinity
-1.6866666666666665E+00
-1.5746603174603173E+00
-1.4565530864197531E+00
-1.3538765432098765E+00
-1.2641481481481480E+00
-1.1815590828924161E+00
-9.5753015873015856E-01
-8.5355555555555540E-01
-7.5078656330749349E-01
-6.4687535375907468E-01
-5.5053968253968255E-01
-4.6360883050538221E-01
-3.6077394636015325E-01
-2.6577777777777778E-01
-1.9422222222222221E-01
-1.5333333333333332E-01
QETSC: Started iter            2
QETSC: Bin type used         =           7
QETSC: Buffer used           =   0.0000000000000000E+00
QETSC: EPS interval          = -Infinity,    -0.153
QETSC: Inertia type          =           1
SLEPc: EPSSolve time = 5 1.192e-06
SLEPc: EPSSolve time = 0 2.146e-06
SLEPc: EPSSolve time = 14 9.537e-07
SLEPc: EPSSolve time = 15 -0.000e+00
SLEPc: EPSSolve time = 13 2.331e-01
SLEPc: EPSSolve time = 6 2.448e-01
SLEPc: EPSSolve time = 1 2.588e-01
SLEPc: EPSSolve time = 2 3.598e-01
SLEPc: EPSSolve time = 12 4.074e-01
SLEPc: EPSSolve time = 3 4.176e-01
SLEPc: EPSSolve time = 8 4.689e-01
SLEPc: EPSSolve time = 4 5.080e-01
SLEPc: EPSSolve time = 7 5.902e-01
SLEPc: EPSSolve time = 11 7.413e-01
SLEPc: EPSSolve time = 9 9.134e-01
SLEPc: EPSSolve time = 10 1.022e+00
 QETSC: Eigenvalues         =
-1.6001343228025737E+00
-1.5765597824342317E+00
-1.5765597824311310E+00
-1.5765597792225408E+00
-1.5765597792221959E+00
-1.5765597792178752E+00
-1.5765597792154848E+00
-1.5302916157598430E+00
-1.5302916157590878E+00
-1.5302916157586324E+00
-1.5302916157578981E+00
-1.5302916102923450E+00
-1.5302916102916062E+00
-1.5078627431856166E+00
-1.5078627113098342E+00
-1.5078627113060954E+00
-1.5077979433118656E+00
-1.5077979433095183E+00
-1.5077979258385308E+00
-1.4438158474493321E+00
-1.4438158474487865E+00
-1.4438158319206935E+00
-1.4438158319200409E+00
-1.4438158319194199E+00
-1.4438158319172592E+00
-1.4437644242478012E+00
-1.4437644242472198E+00
-1.4437644242450374E+00
-1.4437644242441117E+00
-1.4437644098048581E+00
-1.4437644098037077E+00
-1.4073071702787252E+00
-1.4073071702766951E+00
-1.4073071648655608E+00
-1.4073071648645077E+00
-1.4073071648636615E+00
-1.4073071648635080E+00
-1.3536999634675839E+00
-1.3536999634658962E+00
-1.3536999355410224E+00
-1.3536847552241635E+00
-1.3536847326374166E+00
-1.3536847326342891E+00
-1.3473695015081142E+00
-1.3473695015074625E+00
-1.3473695015053140E+00
-1.3473695015049776E+00
-1.3473694753984877E+00
-1.3473694753925805E+00
-1.3473322603316777E+00
-1.3473322603312550E+00
-1.3473322343486778E+00
-1.3473322343467935E+00
-1.3473322343452665E+00
-1.3473322343422132E+00
-1.3404844726387752E+00
-1.3404124711872831E+00
-1.3404124314704693E+00
-1.2979793527957002E+00
-1.2979793527942047E+00
-1.2979793527899679E+00
-1.2979793527892709E+00
-1.2979793485651832E+00
-1.2979793485643394E+00
-9.8456672782630683E-01
-9.8448483776916806E-01
-9.8448471600625242E-01
-9.4269980377414664E-01
-9.4269980377303342E-01
-9.4269980377158591E-01
-9.4269980376941576E-01
-9.4269971199433844E-01
-9.4269971199293878E-01
-9.4262858016526196E-01
-9.4262858016500173E-01
-9.4262858016322693E-01
-9.4262858016203255E-01
-9.4262847941683969E-01
-9.4262847941277483E-01
-9.3550104470715167E-01
-9.3550104470660100E-01
-9.3550088855144353E-01
-9.3550088855063618E-01
-9.3550088854769475E-01
-9.3550088854748537E-01
-8.7884114346168141E-01
-8.7884114345961106E-01
-8.7884096700786662E-01
-8.7884096700690084E-01
-8.7884096700658099E-01
-8.7884096700594083E-01
-8.7618999290458244E-01
-8.7618999290351118E-01
-8.7618982800055578E-01
-8.7612771130650824E-01
-8.7612771130604827E-01
-8.7612753188686476E-01
-7.9880605788827341E-01
-7.9880605788783487E-01
-7.9880605788499259E-01
-7.9880605788444536E-01
-7.9880587806854519E-01
-7.9880587806802750E-01
-7.8002214317011065E-01
-7.8002214316928031E-01
-7.8002214316822516E-01
-7.8002214316756646E-01
-7.8002210660986937E-01
-7.8002210660958637E-01
-7.7996138651406910E-01
-7.7996138651371993E-01
-7.7996138651220637E-01
-7.7996138651166591E-01
-7.7996134733230926E-01
-7.7996134733197275E-01
-7.4785557746348696E-01
-7.4785539212517405E-01
-7.4785539212389129E-01
-7.4764919611344138E-01
-7.4764896656329083E-01
-7.4764896656162083E-01
-7.4454519692015131E-01
-7.1237607821809590E-01
-7.1237607821529014E-01
-7.1237607818510340E-01
-7.1237607818475868E-01
-7.1237607818065940E-01
-7.1237607817859772E-01
-6.7187848988882204E-01
-6.7187827614806561E-01
-6.7187827614744855E-01
-6.7170796083318685E-01
-6.7170771735144741E-01
-6.7170771735044399E-01
-6.6574996909997119E-01
-6.6574996909603823E-01
-6.6574984429852446E-01
-6.6574984429808581E-01
-6.6574984429588402E-01
-6.6574984429493123E-01
-6.6559093983700968E-01
-6.6559093983569007E-01
-6.6559077460842597E-01
-6.6559077460715510E-01
-6.6559077460547189E-01
-6.6559077460346194E-01
-6.4915083009052643E-01
-6.4915083008990371E-01
-6.4915083008949170E-01
-6.4915083008887819E-01
-6.4915082994792916E-01
-6.4915082994732831E-01
-6.1835031614158742E-01
-6.1835031613937042E-01
-6.1835030151363102E-01
-6.1830940085690289E-01
-6.1830938569906502E-01
-6.1830938569569960E-01
-6.1235227489580868E-01
-6.1235227489498489E-01
-6.1235223178954379E-01
-6.1235223178868137E-01
-6.1235223178737996E-01
-6.1235223178697062E-01
-6.1226497710978189E-01
-6.1226497710932848E-01
-6.1226490871079320E-01
-6.1226490870906636E-01
-6.1226490870895423E-01
-6.1226490870845751E-01
-6.0651957940504064E-01
-6.0651940821944794E-01
-6.0632411753433246E-01
-5.9504840819536409E-01
-5.9504840819515314E-01
-5.9504840819487459E-01
-5.9504840819413085E-01
-5.9504814727560718E-01
-5.9504814727504463E-01
-5.8071218244249834E-01
-5.8071218244150802E-01
-5.8071218244100398E-01
-5.8071218243954903E-01
-5.8071187205623875E-01
-5.8071187205305108E-01
-5.2890480790680749E-01
-5.2890480790579142E-01
-5.2890480790387184E-01
-5.2890480790350836E-01
-5.2890479186275430E-01
-5.2890479186168327E-01
-5.2886798017485659E-01
-5.2886798017433390E-01
-5.2886796410573478E-01
-5.2886796410553283E-01
-5.2886796410360626E-01
-5.2886796410198300E-01
-5.1098822785155451E-01
-5.1098822785086895E-01
-5.1098790995966437E-01
-5.1098790995866705E-01
-5.1098790995864873E-01
-5.1098790995835808E-01
-5.1014993425530419E-01
-5.1014993425389810E-01
-5.1014961103811152E-01
-5.1011900564139079E-01
-5.1011900564060475E-01
-5.1011865523361599E-01
-4.7564735750455933E-01
-4.7564735750271908E-01
-4.7564735652483742E-01
-4.7564735652404805E-01
-4.7564735652370566E-01
-4.7564735652294038E-01
-4.6824316583597042E-01
-4.6824316583340336E-01
-4.6824283458325927E-01
-4.6824283458235788E-01
-4.6824283458058619E-01
-4.6824283457923932E-01
-4.2085181167055691E-01
-4.2085181167006280E-01
-4.2085181166847346E-01
-4.2085181166652275E-01
-4.2085143116434420E-01
-4.2085143116148532E-01
-3.9516291016729016E-01
-3.9516291016610716E-01
-3.9516289090176654E-01
-3.9514596352533921E-01
-3.9514594603902831E-01
-3.9514594603650466E-01
-3.8306834944422163E-01
-3.8306834944296919E-01
-3.8306834944142815E-01
-3.8306834944054396E-01
-3.8306832914836519E-01
-3.8306832914327960E-01
-3.8304740651795777E-01
-3.8304740651638486E-01
-3.8304738806488214E-01
-3.8304738806338245E-01
-3.8304738806198202E-01
-3.8304738805959099E-01
-3.7422702482820935E-01
-3.7422647782799778E-01
-3.6916875355685769E-01
-3.6912885707380660E-01
-3.6912883066673946E-01
-2.9580780779532279E-01
-2.9580780779443938E-01
-2.9580780689247932E-01
-2.9580780689101099E-01
-2.9580780688728509E-01
-2.9580780688659936E-01
QETSC: Iter time (min)       =     2   1.30
QETSC: Iter time (max)       =     2   1.32
QETSC: Iter time (avg)       =     2   1.32
QETSC: Bin scores            =     2   2.36   0.20
QETSC: Empty bins            =     2           5
QETSC: Max,min eigs          =     2          37           3
QETSC: Max,min dists         =     2 1.970E-01 1.766E-04
QETSC: Bad bins              =     2          10          10
QETSC: Max neigs bin         =     2          10
QETSC: Max,min dist bins     =     2           7           5
QETSC: Num. of conv. evals   =     2         256
QETSC: Eigenvalue (1)        =     2  -1.6001343228025737E+00
QETSC: Eigenvalue (nocc)     =     2  -2.9580780688659936E-01
QETSC: Max differrence       =     2   3.4424777197842937E-01
QETSC: Safe iteration        =     2      F
QETSC: Finished iter         =           2
 *****************************************************************
 QETSC: Shifts, inertias         =
 -Infinity     0
    -2.300     0
    -2.147     0
    -1.993     0
    -1.840     0
    -1.687     1
    -1.533    31
    -1.380    64
    -1.227    64
    -1.073    67
    -0.920    97
    -0.767   146
    -0.613   197
    -0.460   250
    -0.307   256
    -0.153   256
     0.000   277
 QETSc: Custers,iter,crange,npcmax,trial           3   9.1999999999999998E-002          34           3
-1.8399999999999999E+00
-1.5997777777777777E+00
-1.5054545454545454E+00
-1.4125252525252525E+00
-1.3846464646464645E+00
-1.1755555555555555E+00
-1.0375555555555556E+00
-9.4044444444444442E-01
-8.4489795918367339E-01
-7.5163398692810457E-01
-6.5843137254901951E-01
-5.6415094339622640E-01
-4.7157232704402513E-01
-3.8333333333333330E-01
-3.5777777777777775E-01
 QETSC: Bins             =
              -Infinity
-1.8399999999999999E+00
-1.7919555555555555E+00
-1.5809131313131313E+00
-1.4868686868686869E+00
-1.4069494949494949E+00
-1.3428282828282827E+00
-1.1479555555555554E+00
-1.0181333333333333E+00
-9.2133514739229017E-01
-8.2624516473255960E-01
-7.3299346405228760E-01
-6.3957528671846087E-01
-5.4563522012578614E-01
-4.5392452830188679E-01
-3.7822222222222218E-01
-3.0666666666666664E-01
QETSC: Started iter            3
QETSC: Bin type used         =           7
QETSC: Buffer used           =   0.0000000000000000E+00
QETSC: EPS interval          = -Infinity,    -0.307
QETSC: Inertia type          =           1
SLEPc: EPSSolve time = 5 9.537e-07
SLEPc: EPSSolve time = 0 9.537e-07
SLEPc: EPSSolve time = 15 -0.000e+00
SLEPc: EPSSolve time = 6 -0.000e+00
SLEPc: EPSSolve time = 1 -0.000e+00
SLEPc: EPSSolve time = 14 2.539e-01
SLEPc: EPSSolve time = 7 3.642e-01
SLEPc: EPSSolve time = 3 3.758e-01
SLEPc: EPSSolve time = 4 3.917e-01
SLEPc: EPSSolve time = 2 4.411e-01
SLEPc: EPSSolve time = 8 4.602e-01
SLEPc: EPSSolve time = 13 4.826e-01
SLEPc: EPSSolve time = 9 5.788e-01
SLEPc: EPSSolve time = 12 8.083e-01
SLEPc: EPSSolve time = 10 8.330e-01
SLEPc: EPSSolve time = 11 1.029e+00
 QETSC: Eigenvalues         =
-1.7038502952101513E+00
-1.6811222037622040E+00
-1.6811222037616873E+00
-1.6811222020881056E+00
-1.6811222020872982E+00
-1.6811222020870615E+00
-1.6811222020858385E+00
-1.6367035564041197E+00
-1.6367035564037851E+00
-1.6367035564029668E+00
-1.6367035564024377E+00
-1.6367035536890155E+00
-1.6367035536888648E+00
-1.6153195580892332E+00
-1.6153195480763136E+00
-1.6153195480758440E+00
-1.6152323533400290E+00
-1.6152323533394453E+00
-1.6152323504923478E+00
-1.5547232051451145E+00
-1.5547232051448900E+00
-1.5547232004920795E+00
-1.5547232004917795E+00
-1.5547232004913334E+00
-1.5547232004910279E+00
-1.5546491575796209E+00
-1.5546491575789945E+00
-1.5546491575788950E+00
-1.5546491575778325E+00
-1.5546491533123090E+00
-1.5546491533121829E+00
-1.5209345759703277E+00
-1.5209345759699617E+00
-1.5209345734871220E+00
-1.5209345734866824E+00
-1.5209345734866493E+00
-1.5209345734865094E+00
-1.4715185175495391E+00
-1.4715185118083116E+00
-1.4715185118079817E+00
-1.4715012709536441E+00
-1.4715012709531841E+00
-1.4715012633915316E+00
-1.4664336828883338E+00
-1.4664336828878766E+00
-1.4664336828877227E+00
-1.4664336828864037E+00
-1.4664336765019514E+00
-1.4664336765009562E+00
-1.4664282427490440E+00
-1.4664282427488509E+00
-1.4664282358668335E+00
-1.4664282358665570E+00
-1.4664282358663290E+00
-1.4664282358658935E+00
-1.4610147006397520E+00
-1.4609894858175854E+00
-1.4609894751421941E+00
-1.4224369516030593E+00
-1.4224369516029944E+00
-1.4224369516022171E+00
-1.4224369516018247E+00
-1.4224369495084050E+00
-1.4224369495082196E+00
-1.0735583406284774E+00
-1.0734588203798230E+00
-1.0734587524969013E+00
-1.0353368194348969E+00
-1.0353368194345833E+00
-1.0353368194343520E+00
-1.0353368194339447E+00
-1.0353367512916074E+00
-1.0353367512914036E+00
-1.0352579986010761E+00
-1.0352579986006383E+00
-1.0352579986004748E+00
-1.0352579985995813E+00
-1.0352579406907760E+00
-1.0352579406901057E+00
-1.0278324522466018E+00
-1.0278324522464808E+00
-1.0278323547024837E+00
-1.0278323547022887E+00
-1.0278323547018795E+00
-1.0278323547015289E+00
-9.7624508649037267E-01
-9.7624508649002262E-01
-9.7624497202995675E-01
-9.7624497202968519E-01
-9.7624497202967553E-01
-9.7624497202944471E-01
-9.7551485032154150E-01
-9.7551485032132534E-01
-9.7551473330743699E-01
-9.7544356678810884E-01
-9.7544356678783206E-01
-9.7544346437816642E-01
-8.9426338971547636E-01
-8.9426338971538422E-01
-8.9426338971480079E-01
-8.9426338971471497E-01
-8.9426327710991771E-01
-8.9426327710985110E-01
-8.8411654727864097E-01
-8.8411654727837519E-01
-8.8411654727822397E-01
-8.8411654727763545E-01
-8.8411652369583749E-01
-8.8411652369575899E-01
-8.8402930426587312E-01
-8.8402930426551352E-01
-8.8402930426526050E-01
-8.8402930426465276E-01
-8.8402928632588085E-01
-8.8402928632583078E-01
-8.4553542293351169E-01
-8.4553529944629435E-01
-8.4553529944592265E-01
-8.4535978518915489E-01
-8.4535964507625183E-01
-8.4535964507590511E-01
-8.1725007306803743E-01
-7.8625938199974021E-01
-7.8625938199967449E-01
-7.8625938199948164E-01
-7.8625938199944667E-01
-7.8625938197552647E-01
-7.8625938197519796E-01
-7.8012529750680359E-01
-7.8012515644337288E-01
-7.8012515644313385E-01
-7.7995981549448268E-01
-7.7995966283272478E-01
-7.7995966283245932E-01
-7.7138692811401122E-01
-7.7138692811331444E-01
-7.7138684698899240E-01
-7.7138684698854598E-01
-7.7138684698847448E-01
-7.7138684698759497E-01
-7.7125391984312175E-01
-7.7125391984287939E-01
-7.7125381555463046E-01
-7.7125381555428241E-01
-7.7125381555417538E-01
-7.7125381555368866E-01
-7.2570667086918761E-01
-7.2570667086904250E-01
-7.2570667081347384E-01
-7.2570667081320739E-01
-7.2570667081245877E-01
-7.2570667081200979E-01
-7.1982250127086433E-01
-7.1982250127077096E-01
-7.1982248239890834E-01
-7.1982248239882429E-01
-7.1982248239846169E-01
-7.1982248239795954E-01
-7.1974660673979107E-01
-7.1974660673955815E-01
-7.1974656487887467E-01
-7.1974656487864996E-01
-7.1974656487855260E-01
-7.1974656487783106E-01
-7.1739505301037421E-01
-7.1739494686542749E-01
-7.1724239922930022E-01
-7.0841421631133494E-01
-7.0841421631113466E-01
-7.0841421631074275E-01
-7.0841421631039592E-01
-7.0841404985676593E-01
-7.0841404985666578E-01
-6.9643072470407463E-01
-6.9643072470370659E-01
-6.9643072275513107E-01
-6.9640598148601840E-01
-6.9640597962096262E-01
-6.9640597962074891E-01
-6.9262889469462230E-01
-6.9262889469442446E-01
-6.9262889469418087E-01
-6.9262889469409994E-01
-6.9262870151015243E-01
-6.9262870150958622E-01
-6.2542481318209775E-01
-6.2542481318185483E-01
-6.2542459500480363E-01
-6.2534876829027153E-01
-6.2534876829001029E-01
-6.2534856522372584E-01
-6.2420809032779234E-01
-6.2420809032764157E-01
-6.2420788860919540E-01
-6.2420788860889209E-01
-6.2420788860868537E-01
-6.2420788860832255E-01
-6.1254034074870323E-01
-6.1254034074835328E-01
-6.1254034074806407E-01
-6.1254034074736674E-01
-6.1254033875068470E-01
-6.1254033875052960E-01
-6.1252132220772748E-01
-6.1252132220751387E-01
-6.1252132025222183E-01
-6.1252132025197714E-01
-6.1252132025196648E-01
-6.1252132025148176E-01
-5.8705855069283375E-01
-5.8705855069235968E-01
-5.8705834087285713E-01
-5.8705834087256248E-01
-5.8705834087231301E-01
-5.8705834087167297E-01
-5.6409755304392162E-01
-5.6409755304362807E-01
-5.6409755303011178E-01
-5.6409755302978704E-01
-5.6409755302965203E-01
-5.6409755302960141E-01
-5.4185784574345941E-01
-5.4185784574311435E-01
-5.4185784574283946E-01
-5.4185784574222329E-01
-5.4185760681552586E-01
-5.4185760681500361E-01
-4.9923429673307407E-01
-4.9923395343977067E-01
-4.9260924767411357E-01
-4.9260924412108520E-01
-4.9260924412087898E-01
-4.9260572301300209E-01
-4.9260572301261812E-01
-4.9260571959062394E-01
-4.8340615119074348E-01
-4.8340615119067321E-01
-4.8340614753726269E-01
-4.8340614753704941E-01
-4.8340614753684752E-01
-4.8340614753637057E-01
-4.8340427600339569E-01
-4.8340427600306102E-01
-4.8340427600290964E-01
-4.8340427600170288E-01
-4.8340427241500050E-01
-4.8340427241419737E-01
-4.7326734855334424E-01
-4.7326672820475374E-01
-4.7326672314155765E-01
-4.1432926545252530E-01
-4.1432926545248283E-01
-4.1432926545172916E-01
-4.1432926545133619E-01
-4.1432926533108494E-01
-4.1432926533090647E-01
QETSC: Iter time (min)       =     3   1.32
QETSC: Iter time (max)       =     3   1.33
QETSC: Iter time (avg)       =     3   1.32
QETSC: Bin scores            =     3   2.74   0.41
QETSC: Empty bins            =     3           6
QETSC: Max,min eigs          =     3          39          12
QETSC: Max,min dists         =     3 8.811E-02 3.777E-03
QETSC: Bad bins              =     3           3           3
QETSC: Max neigs bin         =     3          12
QETSC: Max,min dist bins     =     3           3          14
QETSC: Num. of conv. evals   =     3         256
QETSC: Eigenvalue (1)        =     3  -1.7038502952101513E+00
QETSC: Eigenvalue (nocc)     =     3  -4.1432926533090647E-01
QETSC: Max differrence       =     3   1.2445760094388025E-01
QETSC: Safe iteration        =     3      F
QETSC: Finished iter         =           3
 *****************************************************************
 QETSC: Shifts, inertias         =
 -Infinity     0
    -2.300     0
    -2.147     0
    -1.993     0
    -1.840     0
    -1.687     7
    -1.533    37
    -1.380    64
    -1.227    64
    -1.073    67
    -0.920   103
    -0.767   146
    -0.613   215
    -0.460   250
    -0.307   256
    -0.153   256
     0.000   283
 QETSc: Custers,iter,crange,npcmax,trial           4  0.10222222222222221               34           2
-1.7523809523809522E+00
-1.6304444444444444E+00
-1.5276543209876543E+00
-1.4254320987654321E+00
-1.3856790123456788E+00
-1.1755555555555555E+00
-1.0264814814814813E+00
-9.2425925925925922E-01
-8.2015503875968987E-01
-7.2444444444444434E-01
-6.4888888888888885E-01
-5.4761904761904756E-01
-4.5999999999999996E-01
-3.5777777777777775E-01
-3.0666666666666664E-01
 QETSC: Bins             =
              -Infinity
-1.8399999999999999E+00
-1.7279936507936506E+00
-1.6098864197530864E+00
-1.5072098765432098E+00
-1.4174814814814813E+00
-1.3436543209876541E+00
-1.1457407407407407E+00
-1.0060370370370368E+00
-9.0343841515934531E-01
-8.0101291989664081E-01
-7.0933333333333326E-01
-6.2863492063492055E-01
-5.3009523809523806E-01
-4.3955555555555553E-01
-3.4755555555555551E-01
-3.0666666666666664E-01
QETSC: Started iter            4
QETSC: Bin type used         =           7
QETSC: Buffer used           =   0.0000000000000000E+00
QETSC: EPS interval          = -Infinity,    -0.307
QETSC: Inertia type          =           1
SLEPc: EPSSolve time = 5 -0.000e+00
SLEPc: EPSSolve time = 0 1.907e-06
SLEPc: EPSSolve time = 14 9.537e-07
SLEPc: EPSSolve time = 6 -0.000e+00
SLEPc: EPSSolve time = 15 -0.000e+00
SLEPc: EPSSolve time = 1 2.457e-01
SLEPc: EPSSolve time = 2 3.612e-01
SLEPc: EPSSolve time = 3 4.283e-01
SLEPc: EPSSolve time = 13 4.844e-01
SLEPc: EPSSolve time = 4 4.863e-01
SLEPc: EPSSolve time = 11 4.983e-01
SLEPc: EPSSolve time = 12 4.986e-01
SLEPc: EPSSolve time = 7 5.560e-01
SLEPc: EPSSolve time = 10 6.935e-01
SLEPc: EPSSolve time = 9 7.690e-01
SLEPc: EPSSolve time = 8 9.710e-01
 QETSC: Eigenvalues         =
-1.7348329931555426E+00
-1.7123480884709203E+00
-1.7123480884705478E+00
-1.7123480872133898E+00
-1.7123480872119521E+00
-1.7123480872108081E+00
-1.7123480872099652E+00
-1.6684613936761892E+00
-1.6684613936760366E+00
-1.6684613936751547E+00
-1.6684613936747608E+00
-1.6684613917269566E+00
-1.6684613917266293E+00
-1.6473748669385284E+00
-1.6473748587077934E+00
-1.6473748587074890E+00
-1.6472839405414237E+00
-1.6472839405410544E+00
-1.6472839374498760E+00
-1.5877580404701688E+00
-1.5877580404701050E+00
-1.5877580362307271E+00
-1.5877580362300034E+00
-1.5877580362294594E+00
-1.5877580362290589E+00
-1.5876794450934648E+00
-1.5876794450924669E+00
-1.5876794450924436E+00
-1.5876794450917360E+00
-1.5876794410407824E+00
-1.5876794410401787E+00
-1.5547187625275529E+00
-1.5547187625272945E+00
-1.5547187609131978E+00
-1.5547187609130009E+00
-1.5547187609127868E+00
-1.5547187609126234E+00
-1.5064535729181259E+00
-1.5064535673690080E+00
-1.5064535673686101E+00
-1.5064302112311574E+00
-1.5064302112308479E+00
-1.5064302049476550E+00
-1.5016730522937101E+00
-1.5016730522929935E+00
-1.5016730459642988E+00
-1.5016730459633720E+00
-1.5016730459629593E+00
-1.5016730459622620E+00
-1.5016725735791363E+00
-1.5016725735783274E+00
-1.5016725735782026E+00
-1.5016725735774739E+00
-1.5016725681151351E+00
-1.5016725681149552E+00
-1.4966049371986712E+00
-1.4965883011794154E+00
-1.4965882917671620E+00
-1.4590676087069463E+00
-1.4590676087066170E+00
-1.4590676087046452E+00
-1.4590676087044736E+00
-1.4590676069778028E+00
-1.4590676069774391E+00
-1.1004953984371457E+00
-1.1003942564173737E+00
-1.1003942021431252E+00
-1.0632350793990730E+00
-1.0632350793981931E+00
-1.0632350793977408E+00
-1.0632350793972754E+00
-1.0632350221778277E+00
-1.0632350221773048E+00
-1.0631561844992774E+00
-1.0631561844984971E+00
-1.0631561844980413E+00
-1.0631561844976789E+00
-1.0631561379043029E+00
-1.0631561379040975E+00
-1.0557128736441501E+00
-1.0557128736436576E+00
-1.0557127943775300E+00
-1.0557127943774032E+00
-1.0557127943759670E+00
-1.0557127943758668E+00
-1.0054334716800106E+00
-1.0054334716797202E+00
-1.0054333779508344E+00
-1.0054333779506899E+00
-1.0054333779506295E+00
-1.0054333779503013E+00
-1.0051678652998557E+00
-1.0051678652994442E+00
-1.0051677678360535E+00
-1.0050974300858571E+00
-1.0050974300855871E+00
-1.0050973477426124E+00
-9.2307100582132506E-01
-9.2307100582117874E-01
-9.2307100581984114E-01
-9.2307100581971890E-01
-9.2307091471924163E-01
-9.2307091471902059E-01
-9.1516455907748229E-01
-9.1516455907688188E-01
-9.1516455907665584E-01
-9.1516455907621330E-01
-9.1516454046808815E-01
-9.1516454046793116E-01
-9.1507034890354833E-01
-9.1507034890291428E-01
-9.1507034890256866E-01
-9.1507034890211947E-01
-9.1507033566174012E-01
-9.1507033566154705E-01
-8.7502453805250324E-01
-8.7502443861829615E-01
-8.7502443861799661E-01
-8.7485196404797572E-01
-8.7485184867586674E-01
-8.7485184867562160E-01
-8.4007582820554894E-01
-8.1241945376287228E-01
-8.1241933957652668E-01
-8.1241933957630375E-01
-8.1225286831773746E-01
-8.1225274311780415E-01
-8.1225274311747087E-01
-8.0947769947502313E-01
-8.0947769947331938E-01
-8.0947769947240433E-01
-8.0947769947147563E-01
-8.0947769942146108E-01
-8.0947769942049841E-01
-8.0302314598583335E-01
-8.0302314598564384E-01
-8.0302308191255634E-01
-8.0302308191183025E-01
-8.0302308191121174E-01
-8.0302308191091232E-01
-8.0289393636029804E-01
-8.0289393635978612E-01
-8.0289384985285828E-01
-8.0289384985209167E-01
-8.0289384985146917E-01
-8.0289384985099677E-01
-7.5202562794864092E-01
-7.5202562794822947E-01
-7.5202561606330187E-01
-7.5202561606283902E-01
-7.5202561606234863E-01
-7.5202561606191931E-01
-7.5195152094659867E-01
-7.5195152094637863E-01
-7.5195148629269826E-01
-7.5195148629226505E-01
-7.5195148629188502E-01
-7.5195148629137498E-01
-7.5047519346506109E-01
-7.5047511118162702E-01
-7.5033057426171246E-01
-7.4981271741962230E-01
-7.4981271741936806E-01
-7.4981271727688237E-01
-7.4981271727658594E-01
-7.4981271727605647E-01
-7.4981271727595522E-01
-7.4212974783090846E-01
-7.4212974783066898E-01
-7.4212974783042907E-01
-7.4212974783035690E-01
-7.4212961208288930E-01
-7.4212961208262440E-01
-7.2601745706472154E-01
-7.2601745706457277E-01
-7.2601745706423304E-01
-7.2601745706415943E-01
-7.2601730154876465E-01
-7.2601730154835631E-01
-7.2104267687502632E-01
-7.2104267687499501E-01
-7.2104267554998269E-01
-7.2101832455814274E-01
-7.2101832358035745E-01
-7.2101832357982643E-01
-6.5979741401522329E-01
-6.5979741401498815E-01
-6.5979723605030172E-01
-6.5971228703365759E-01
-6.5971228703344109E-01
-6.5971212487283792E-01
-6.5808137678514111E-01
-6.5808137678481737E-01
-6.5808121282105569E-01
-6.5808121282090615E-01
-6.5808121282069199E-01
-6.5808121282038545E-01
-6.3896573687847968E-01
-6.3896573687802327E-01
-6.3896573687771985E-01
-6.3896573687688774E-01
-6.3896573583961780E-01
-6.3896573583921223E-01
-6.3894703956693033E-01
-6.3894703956681709E-01
-6.3894703859180468E-01
-6.3894703859137358E-01
-6.3894703859060265E-01
-6.3894703858994251E-01
-6.2241226694185070E-01
-6.2241226694149887E-01
-6.2241209654687069E-01
-6.2241209654612506E-01
-6.2241209654548513E-01
-6.2241209654522234E-01
-5.9203409654928107E-01
-5.9203409654910610E-01
-5.9203409654893524E-01
-5.9203409654878925E-01
-5.9203409617669400E-01
-5.9203409617646174E-01
-5.7786551590066537E-01
-5.7786551589976209E-01
-5.7786551589930990E-01
-5.7786551589902069E-01
-5.7786532229632259E-01
-5.7786532229596865E-01
-5.3634241418880335E-01
-5.3634213568163469E-01
-5.2328739297464544E-01
-5.2328738980758582E-01
-5.2328738980722134E-01
-5.2328144966997914E-01
-5.2328144966973711E-01
-5.2328144732223847E-01
-5.1484474956357285E-01
-5.1484474956289472E-01
-5.1484474632379995E-01
-5.1484474632293553E-01
-5.1484474632255406E-01
-5.1484474632193100E-01
-5.1483997746725352E-01
-5.1483997746648769E-01
-5.1483997746629095E-01
-5.1483997746566379E-01
-5.1483997498326706E-01
-5.1483997498324285E-01
-5.0564071938978827E-01
-5.0564071493318041E-01
-5.0563606305924247E-01
-4.5027785484337168E-01
-4.5027785484303079E-01
-4.5027785484114902E-01
-4.5027785484097665E-01
-4.5027785439260526E-01
-4.5027785439226370E-01
QETSC: Iter time (min)       =     4   1.26
QETSC: Iter time (max)       =     4   1.27
QETSC: Iter time (avg)       =     4   1.27
QETSC: Bin scores            =     4   2.55   0.23
QETSC: Empty bins            =     4           6
QETSC: Max,min eigs          =     4          39           1
QETSC: Max,min dists         =     4 1.052E-01 6.036E-04
QETSC: Bad bins              =     4          10          10
QETSC: Max neigs bin         =     4          11
QETSC: Max,min dist bins     =     4           2           9
QETSC: Num. of conv. evals   =     4         256
QETSC: Eigenvalue (1)        =     4  -1.7348329931555426E+00
QETSC: Eigenvalue (nocc)     =     4  -4.5027785439226370E-01
QETSC: Max differrence       =     4   3.7108182241864018E-02
[...]
siesta: DEna    =      -380.438936
siesta: DUscf   =        40.628139
siesta: DUext   =         0.000000
siesta: Exc     =     -6846.953705
siesta: eta*DQ  =         0.000000
siesta: Emadel  =         0.000000
siesta: Emeta   =         0.000000
siesta: Emolmec =         0.000000
siesta: Ekinion =         0.000000
siesta: Eharris =    -22820.049255
siesta: Etot    =    -22820.049252
siesta: FreeEng =    -22820.049252

siesta: Final energy (eV):
siesta:  Band Struct. =   -6744.888010
siesta:       Kinetic =   16156.155131
siesta:       Hartree =  100237.279961
siesta:    Ext. field =       0.000000
siesta:   Exch.-corr. =   -6846.953705
siesta:  Ion-electron = -214943.086176
siesta:       Ion-ion =   82576.555537
siesta:       Ekinion =       0.000000
siesta:         Total =  -22820.049252

siesta: Stress tensor (static) (eV/Ang**3):
siesta:     0.000377   -0.000000   -0.000000
siesta:     0.000000   -0.007960   -0.000000
siesta:    -0.000000   -0.000000   -0.007960

siesta: Cell volume =       6759.366118 Ang**3

siesta: Pressure (static):
siesta:                Solid            Molecule  Units
siesta:           0.00005643          0.00005624  Ry/Bohr**3
siesta:           0.00518085          0.00516351  eV/Ang**3
siesta:           8.30072816          8.27295127  kBar
(Free)E+ p_basis*V_orbitals  =      -22775.619189
(Free)Eharris+ p_basis*V_orbitals  =      -22775.619193

siesta: Electric dipole (a.u.)  =    0.000000    0.000000    0.000000
siesta: Electric dipole (Debye) =    0.000000    0.000000    0.000000
>> End of run:   8-DEC-2016   4:56:59
************************************************************************************************************************
***             WIDEN YOUR WINDOW TO 120 CHARACTERS.  Use 'enscript -r -fCourier9' to print this document            ***
************************************************************************************************************************

---------------------------------------------- PETSc Performance Summary: ----------------------------------------------

/global/homes/k/keceli/siesta-qetsc/Obj-gcc/siesta on a arch-cori-gcc named nid00165 with 128 processors, by keceli Thu Dec  8 04:56:59 2016
Using Petsc Development GIT revision: v3.7.4-1897-g257f32f  GIT Date: 2016-11-03 16:33:24 +0000

                         Max       Max/Min        Avg      Total 
Time (sec):           1.620e+01      1.00001   1.620e+01
Objects:              1.172e+03      1.19227   1.124e+03
Flops:                2.773e+09   21323.14216   8.838e+08  1.131e+11
Flops/sec:            1.712e+08   21323.16444   5.457e+07  6.985e+09
MPI Messages:         5.105e+04     15.05914   2.723e+04  3.485e+06
MPI Message Lengths:  6.876e+07      8.57359   1.391e+03  4.848e+09
MPI Reductions:       1.017e+04      2.37769

Flop counting convention: 1 flop = 1 real number operation of type (multiply/divide/add/subtract)
                            e.g., VecAXPY() for real vectors of length N --> 2N flops
                            and VecAXPY() for complex vectors of length N --> 8N flops

Summary of Stages:   ----- Time ------  ----- Flops -----  --- Messages ---  -- Message Lengths --  -- Reductions --
                        Avg     %Total     Avg     %Total   counts   %Total     Avg         %Total   counts   %Total 
 0:      Main Stage: 8.5199e-05   0.0%  0.0000e+00   0.0%  0.000e+00   0.0%  0.000e+00        0.0%  0.000e+00   0.0% 
 1:     siesta_init: 4.6345e-01   2.9%  0.0000e+00   0.0%  0.000e+00   0.0%  0.000e+00        0.0%  0.000e+00   0.0% 
 2:   siesta_forces: 3.0081e+00  18.6%  0.0000e+00   0.0%  0.000e+00   0.0%  0.000e+00        0.0%  0.000e+00   0.0% 
 3:    siesta_solve: 2.6349e-04   0.0%  0.0000e+00   0.0%  0.000e+00   0.0%  0.000e+00        0.0%  0.000e+00   0.0% 
 4:    siesta2qetsc: 2.7038e-02   0.2%  0.0000e+00   0.0%  2.790e+04   0.8%  3.551e-01        0.0%  5.700e+01   1.3% 
 5: qetsc_setup_eps: 7.6646e-01   4.7%  7.3894e+07   0.1%  1.350e+05   3.9%  3.132e+02       22.5%  2.780e+02   6.5% 
 6: qetsc_solve_eps: 8.7022e+00  53.7%  1.1305e+11  99.9%  2.915e+06  83.7%  1.067e+03       76.7%  3.615e+03  84.3% 
 7:   qetsc_eigvals: 1.1672e-04   0.0%  0.0000e+00   0.0%  0.000e+00   0.0%  0.000e+00        0.0%  0.000e+00   0.0% 
 8:   qetsc_density: 3.2016e-01   2.0%  0.0000e+00   0.0%  4.067e+05  11.7%  1.066e+01        0.8%  3.542e+03  82.6% 
10:     siesta_misc: 2.5526e+00  15.8%  0.0000e+00   0.0%  0.000e+00   0.0%  0.000e+00        0.0%  0.000e+00   0.0% 
11:     qetsc_clean: 1.0660e-02   0.1%  0.0000e+00   0.0%  0.000e+00   0.0%  0.000e+00        0.0%  0.000e+00   0.0% 
12:     siesta_move: 1.0783e-05   0.0%  0.0000e+00   0.0%  0.000e+00   0.0%  0.000e+00        0.0%  0.000e+00   0.0% 
13: siesta_analysis: 8.0253e-04   0.0%  0.0000e+00   0.0%  0.000e+00   0.0%  0.000e+00        0.0%  0.000e+00   0.0% 
14:      siesta_end: 3.4404e-01   2.1%  0.0000e+00   0.0%  0.000e+00   0.0%  0.000e+00        0.0%  0.000e+00   0.0% 

------------------------------------------------------------------------------------------------------------------------
See the 'Profiling' chapter of the users' manual for details on interpreting output.
Phase summary info:
   Count: number of times phase was executed
   Time and Flops: Max - maximum over all processors
                   Ratio - ratio of maximum to minimum over all processors
   Mess: number of messages sent
   Avg. len: average message length (bytes)
   Reduct: number of global reductions
   Global: entire computation
   Stage: stages of a computation. Set stages with PetscLogStagePush() and PetscLogStagePop().
      %T - percent time in this phase         %F - percent flops in this phase
      %M - percent messages in this phase     %L - percent message lengths in this phase
      %R - percent reductions in this phase
   Total Mflop/s: 10e-6 * (sum of flops over all processors)/(max time over all processors)
------------------------------------------------------------------------------------------------------------------------
Event                Count      Time (sec)     Flops                             --- Global ---  --- Stage ---   Total
                   Max Ratio  Max     Ratio   Max  Ratio  Mess   Avg len Reduct  %T %F %M %L %R  %T %F %M %L %R Mflop/s
------------------------------------------------------------------------------------------------------------------------

--- Event Stage 0: Main Stage


--- Event Stage 1: siesta_init


--- Event Stage 2: siesta_forces


--- Event Stage 3: siesta_solve


--- Event Stage 4: siesta2qetsc

MatConvert             2 1.0 2.4486e-04 1.8 0.00e+00 0.0 0.0e+00 0.0e+00 0.0e+00  0  0  0  0  0   1  0  0  0  0     0
MatAssemblyBegin      11 1.0 1.7227e-0210.6 0.00e+00 0.0 0.0e+00 0.0e+00 4.4e+01  0  0  0  0  1  43  0  0  0 77     0
MatAssemblyEnd        11 1.0 2.3832e-03 1.1 0.00e+00 0.0 2.8e+04 4.4e+01 1.1e+01  0  0  1  0  0   8  0100100 19     0
VecSet                 3 1.0 9.0599e-06 9.5 0.00e+00 0.0 0.0e+00 0.0e+00 0.0e+00  0  0  0  0  0   0  0  0  0  0     0

--- Event Stage 5: qetsc_setup_eps

MatCholFctrSym         1 1.0 2.2679e-02 1.0 0.00e+00 0.0 0.0e+00 0.0e+00 5.0e+00  0  0  0  0  0   3  0  0  0  2     0
MatCholFctrNum         4 1.0 4.5561e-01 1.1 0.00e+00 0.0 0.0e+00 0.0e+00 0.0e+00  3  0  0  0  0  59  0  0  0  0     0
MatCopy                3 1.0 3.2115e-02 1.1 0.00e+00 0.0 0.0e+00 0.0e+00 1.8e+01  0  0  0  0  0   4  0  0  0  6     0
MatConvert             1 1.0 1.2081e-0313.6 0.00e+00 0.0 0.0e+00 0.0e+00 0.0e+00  0  0  0  0  0   0  0  0  0  0     0
MatScale              18 1.0 1.4980e-03 8.9 1.02e+06 7.9 0.0e+00 0.0e+00 0.0e+00  0  0  0  0  0   0100  0  0  0 49329
MatAssemblyBegin      29 1.0 1.9781e-01738.8 0.00e+00 0.0 0.0e+00 0.0e+00 7.2e+01  1  0  0  0  2  12  0  0  0 26     0
MatAssemblyEnd        29 1.0 4.0245e-03 1.2 0.00e+00 0.0 2.3e+04 5.8e+02 7.6e+01  0  0  1  0  2   0  0 17  1 27     0
MatGetRow           2288 1.0 1.2911e-02 6.6 0.00e+00 0.0 0.0e+00 0.0e+00 0.0e+00  0  0  0  0  0   1  0  0  0  0     0
MatGetSubMatrice      11 1.0 7.7913e-02 4.3 0.00e+00 0.0 1.1e+05 9.6e+03 2.2e+01  0  0  3 22  1   8  0 83 99  8     0
MatZeroEntries         3 1.0 9.5487e-04 6.7 0.00e+00 0.0 0.0e+00 0.0e+00 0.0e+00  0  0  0  0  0   0  0  0  0  0     0
MatAXPY               13 1.0 7.2683e-02 1.1 0.00e+00 0.0 1.3e+04 5.8e+02 6.4e+01  0  0  0  0  1   9  0 10  1 23     0
MatRedundantMat       11 1.0 1.7061e-01 1.1 0.00e+00 0.0 1.2e+05 8.9e+03 1.1e+02  1  0  3 22  3  22  0 90 99 40     0
MatMPIConcateSeq      11 1.0 1.3931e-01 1.6 0.00e+00 0.0 9.9e+03 5.8e+02 8.9e+01  1  0  0  0  2  13  0  7  1 32     0
VecSet                 9 1.0 1.5736e-0516.5 0.00e+00 0.0 0.0e+00 0.0e+00 0.0e+00  0  0  0  0  0   0  0  0  0  0     0
EPSSetUp               4 1.0 6.2944e-01 1.0 0.00e+00 0.0 4.0e+04 5.2e+03 2.1e+02  4  0  1  4  5  81  0 30 19 74     0
STSetUp                8 1.0 5.8230e-01 1.1 0.00e+00 0.0 1.3e+04 5.8e+02 9.1e+01  4  0  0  0  2  75  0 10  1 33     0
KSPSetUp               4 1.0 4.2915e-06 0.0 0.00e+00 0.0 0.0e+00 0.0e+00 0.0e+00  0  0  0  0  0   0  0  0  0  0     0
PCSetUp                4 1.0 4.8054e-01 1.1 0.00e+00 0.0 0.0e+00 0.0e+00 5.0e+00  3  0  0  0  0  62  0  0  0  2     0
BVCreate               3 1.0 1.6904e-04 1.4 0.00e+00 0.0 0.0e+00 0.0e+00 6.0e+00  0  0  0  0  0   0  0  0  0  2     0

--- Event Stage 6: qetsc_solve_eps

MatMult             5669 0.0 2.1013e+00 0.0 2.58e+09 0.0 2.3e+06 1.4e+03 0.0e+00  5 89 67 69  0   9 89 81 90  0 47674
MatSolve            2194 0.0 4.8186e+00 0.0 0.00e+00 0.0 5.3e+05 6.6e+02 1.2e+03 16  0 15  7 27  29  0 18 10 33     0
MatCholFctrNum        11 1.1 1.2212e+00 1.2 0.00e+00 0.0 0.0e+00 0.0e+00 0.0e+00  7  0  0  0  0  13  0  0  0  0     0
MatCopy               11 1.1 1.1477e-01 1.1 0.00e+00 0.0 0.0e+00 0.0e+00 6.2e+01  1  0  0  0  1   1  0  0  0  2     0
MatAssemblyBegin      22 1.1 2.6107e-01963.9 0.00e+00 0.0 0.0e+00 0.0e+00 8.2e+01  1  0  0  0  2   1  0  0  0  2     0
MatAssemblyEnd        22 1.1 5.7757e-03 1.1 0.00e+00 0.0 3.4e+04 5.8e+02 1.2e+02  0  0  1  0  3   0  0  1  1  3     0
MatGetRow           6864 1.1 3.8551e-02 7.2 0.00e+00 0.0 0.0e+00 0.0e+00 0.0e+00  0  0  0  0  0   0  0  0  0  0     0
MatZeroEntries        11 1.1 2.9776e-03 6.5 0.00e+00 0.0 0.0e+00 0.0e+00 0.0e+00  0  0  0  0  0   0  0  0  0  0     0
MatAXPY               11 1.1 1.8868e-01 1.1 0.00e+00 0.0 3.4e+04 5.8e+02 1.6e+02  1  0  1  0  4   2  0  1  1  5     0
VecDot               347 0.0 8.2359e-02 0.0 1.44e+05 0.0 0.0e+00 0.0e+00 1.6e+02  0  0  0  0  4   0  0  0  0  4   103
VecCopy               86 0.0 4.5538e-05 0.0 0.00e+00 0.0 0.0e+00 0.0e+00 0.0e+00  0  0  0  0  0   0  0  0  0  0     0
VecSet             192121921.2 1.1318e-022967.0 0.00e+00 0.0 0.0e+00 0.0e+00 0.0e+00  0  0  0  0  0   0  0  0  0  0     0
VecScatterBegin    10057 0.0 6.5545e-02 0.0 0.00e+00 0.0 2.9e+06 1.3e+03 1.2e+03  0  0 82 76 27   0  0 99 99 32     0
VecScatterEnd       7863 0.0 5.6111e-01 0.0 0.00e+00 0.0 0.0e+00 0.0e+00 0.0e+00  1  0  0  0  0   2  0  0  0  0     0
VecSetRandom          10 0.0 1.0920e-04 0.0 0.00e+00 0.0 0.0e+00 0.0e+00 0.0e+00  0  0  0  0  0   0  0  0  0  0     0
EPSSetUp              10 1.0 1.4224e+00 1.0 0.00e+00 0.0 3.3e+04 5.8e+02 3.5e+02  9  0  1  0  8  16  0  1  1 10     0
EPSSolve              10 1.0 8.7107e+00 1.0 2.77e+09 0.0 2.9e+06 1.3e+03 3.6e+03 54100 84 77 84 100100100100100 12979
STSetUp               16 1.0 8.3468e-01 1.1 0.00e+00 0.0 2.0e+04 5.8e+02 1.3e+02  5  0  1  0  3   9  0  1  0  4     0
STApply             2194 0.0 5.1395e+00 0.0 9.98e+08 0.0 1.4e+06 1.1e+03 1.2e+03 17 34 41 33 27  32 34 49 44 33  7389
STMatSolve          2194 0.0 4.8486e+00 0.0 0.00e+00 0.0 5.3e+05 6.6e+02 1.2e+03 16  0 15  7 27  29  0 18 10 33     0
KSPSetUp              11 1.1 9.0599e-06 0.0 0.00e+00 0.0 0.0e+00 0.0e+00 0.0e+00  0  0  0  0  0   0  0  0  0  0     0
KSPSolve            2194 0.0 4.8285e+00 0.0 0.00e+00 0.0 5.3e+05 6.6e+02 1.2e+03 16  0 15  7 27  29  0 18 10 33     0
PCSetUp               11 1.1 1.2213e+00 1.2 0.00e+00 0.0 0.0e+00 0.0e+00 0.0e+00  7  0  0  0  0  13  0  0  0  0     0
PCApply             2194 0.0 4.8201e+00 0.0 0.00e+00 0.0 5.3e+05 6.6e+02 1.2e+03 16  0 15  7 27  29  0 18 10 33     0
BVCreate              25 6.2 2.2440e-03 6.6 0.00e+00 0.0 0.0e+00 0.0e+00 1.1e+02  0  0  0  0  3   0  0  0  0  3     0
BVCopy                86 0.0 1.0824e-04 0.0 0.00e+00 0.0 0.0e+00 0.0e+00 0.0e+00  0  0  0  0  0   0  0  0  0  0     0
BVMultVec           3128 0.0 1.2061e-02 0.0 7.16e+07 0.0 0.0e+00 0.0e+00 0.0e+00  0  4  0  0  0   0  4  0  0  0 371816
BVMultInPlace         51 0.0 3.4993e-03 0.0 4.86e+07 0.0 0.0e+00 0.0e+00 0.0e+00  0  3  0  0  0   0  3  0  0  0 1078625
BVDotVec            3128 0.0 1.2098e+00 0.0 1.50e+09 0.0 1.3e+06 1.4e+03 1.7e+03  4 54 38 39 41   8 54 46 51 48 50867
BVOrthogonalizeV    1847 0.0 1.2254e+00 0.0 1.57e+09 0.0 1.3e+06 1.4e+03 1.7e+03  4 58 38 39 41   8 58 46 51 48 53878
BVScale             2194 0.0 1.3266e-03 0.0 4.56e+05 0.0 0.0e+00 0.0e+00 0.0e+00  0  0  0  0  0   0  0  0  0  0 23264
BVNormVec            347 0.0 1.2971e-01 0.0 1.58e+08 0.0 1.2e+05 1.4e+03 1.6e+02  0  5  4  4  4   1  5  4  5  4 40477
BVSetRandom           10 0.0 1.2374e-04 0.0 0.00e+00 0.0 0.0e+00 0.0e+00 0.0e+00  0  0  0  0  0   0  0  0  0  0     0
DSSolve               50 0.0 6.8143e-02 0.0 0.00e+00 0.0 0.0e+00 0.0e+00 0.0e+00  0  0  0  0  0   0  0  0  0  0     0
DSVectors           2814 0.0 7.1597e-04 0.0 0.00e+00 0.0 0.0e+00 0.0e+00 0.0e+00  0  0  0  0  0   0  0  0  0  0     0
DSOther               51 0.0 1.2557e-02 0.0 0.00e+00 0.0 0.0e+00 0.0e+00 0.0e+00  0  0  0  0  0   0  0  0  0  0     0

--- Event Stage 7: qetsc_eigvals


--- Event Stage 8: qetsc_density

VecCopy             2560 1.0 5.7411e-04 1.4 0.00e+00 0.0 0.0e+00 0.0e+00 0.0e+00  0  0  0  0  0   0  0  0  0  0     0
VecSet                 1 1.0 1.5974e-05 0.0 0.00e+00 0.0 0.0e+00 0.0e+00 0.0e+00  0  0  0  0  0   0  0  0  0  0     0
VecScatterBegin     5120 1.0 2.0392e-01 1.1 0.00e+00 0.0 3.3e+05 1.0e+02 2.6e+03  1  0  9  1 60  62  0 80 91 72     0
VecScatterEnd       2560 1.0 5.0531e-02 1.3 0.00e+00 0.0 0.0e+00 0.0e+00 0.0e+00  0  0  0  0  0  14  0  0  0  0     0
BVCopy              2560 1.0 1.8177e-03 1.4 0.00e+00 0.0 0.0e+00 0.0e+00 0.0e+00  0  0  0  0  0   0  0  0  0  0     0

--- Event Stage 9: Unknown


--- Event Stage 10: siesta_misc


--- Event Stage 11: qetsc_clean


--- Event Stage 12: siesta_move


--- Event Stage 13: siesta_analysis


--- Event Stage 14: siesta_end

------------------------------------------------------------------------------------------------------------------------

Memory usage is given in bytes:

Object Type          Creations   Destructions     Memory  Descendants' Mem.
Reports information only for process 0.

--- Event Stage 0: Main Stage


--- Event Stage 1: siesta_init


--- Event Stage 2: siesta_forces


--- Event Stage 3: siesta_solve


--- Event Stage 4: siesta2qetsc

              Matrix     9              0            0     0.
              Vector    19              1         1648     0.
      Vector Scatter     4              0            0     0.
           Index Set     4              4        21352     0.

--- Event Stage 5: qetsc_setup_eps

              Matrix    28             12      5741428     0.
              Vector    97             53       301184     0.
      Vector Scatter    16              7         7504     0.
           Index Set    59             52       226240     0.
          EPS Solver     2              0            0     0.
  Spectral Transform     2              0            0     0.
       Krylov Solver     2              0            0     0.
      Preconditioner     2              0            0     0.
       Basis Vectors     6              3         3168     0.
         PetscRandom     1              0            0     0.
              Region     2              0            0     0.
       Direct Solver     2              0            0     0.

--- Event Stage 6: qetsc_solve_eps

              Matrix    30             30     14425800     0.
              Vector   134            134       679264     0.
      Vector Scatter    20             20        21440     0.
           Index Set    40             40       296320     0.
       Basis Vectors    10             10        10560     0.

--- Event Stage 7: qetsc_eigvals


--- Event Stage 8: qetsc_density

              Vector    11             10        33120     0.
      Vector Scatter   161            160       172560     0.
           Index Set   321            321       268304     0.

--- Event Stage 9: Unknown


--- Event Stage 10: siesta_misc


--- Event Stage 11: qetsc_clean

              Matrix     0             25     12731382     0.
              Vector     0             63       473208     0.
      Vector Scatter     0             14        14176     0.
           Index Set     0              7         5488     0.
          EPS Solver     0              2        23776     0.
  Spectral Transform     0              2         1632     0.
       Krylov Solver     0              2         2336     0.
      Preconditioner     0              2         1952     0.
       Basis Vectors     0              3         3168     0.
         PetscRandom     0              1          638     0.
              Region     0              2         1312     0.
       Direct Solver     0              2       109992     0.

--- Event Stage 12: siesta_move


--- Event Stage 13: siesta_analysis


--- Event Stage 14: siesta_end

              Viewer     1              0            0     0.
========================================================================================================================
Average time to get PetscTime(): 9.53674e-08
Average time for MPI_Barrier(): 6.81877e-06
Average time for zero size MPI_Send(): 2.31154e-06
#PETSc Option Table entries:
-eps_interval -2.3,0.
-eps_krylovschur_detect_zeros 0
-eps_krylovschur_partitions 16
-ioptbin 7
-ioptdensity 0
-ioptinertia 1
-ioptleft 2
-log_view
-mat_mumps_cntl_3 1e-12
-mat_mumps_icntl_13 1
-mat_mumps_icntl_23 3000
-mat_mumps_icntl_24 1
-mat_mumps_icntl_28 1
-mat_mumps_icntl_7 5
-mat_type mpisbaij
-roptbuffer 0.01
-roptdiff 0.1
-writeeigs 1
#End of PETSc Option Table entries
Compiled without FORTRAN kernels
Compiled with full precision matrices (default)
sizeof(short) 2 sizeof(int) 4 sizeof(long) 8 sizeof(void*) 8 sizeof(PetscScalar) 8 sizeof(PetscInt) 4
Configure options: --COPTFLAGS="-O3 -g" --CXXOPTFLAGS="-O3 -g" --FOPTFLAGS="-O3 -g" --download-mumps --download-metis --download-parmetis --download-ptscotch=1 --download-scalapack=1 --with-cc=cc --with-clib-autodetect=0 --with-cxx=CC --with-cxxlib-autodetect=0 --with-debugging=0 --with-fc=ftn --with-fortranlib-autodetect=0 --with-mpiexec=srun --with-ssl=0 --with-x=0
-----------------------------------------
Libraries compiled on Thu Nov 24 23:08:27 2016 on cori03 
Machine characteristics: Linux-3.12.60-52.57.1.11767.0.PTF.996988-default-x86_64-with-SuSE-12-x86_64
Using PETSc directory: /global/homes/k/keceli/petsc
Using PETSc arch: arch-cori-gcc
-----------------------------------------

Using C compiler: cc   -O3 -g  ${COPTFLAGS} ${CFLAGS}
Using Fortran compiler: ftn  -O3 -g   ${FOPTFLAGS} ${FFLAGS} 
-----------------------------------------

Using include paths: -I/global/homes/k/keceli/petsc/arch-cori-gcc/include -I/global/homes/k/keceli/petsc/include -I/global/homes/k/keceli/petsc/include -I/global/homes/k/keceli/petsc/arch-cori-gcc/include
-----------------------------------------

Using C linker: cc
Using Fortran linker: ftn
Using libraries: -Wl,-rpath,/global/homes/k/keceli/petsc/arch-cori-gcc/lib -L/global/homes/k/keceli/petsc/arch-cori-gcc/lib -lpetsc -Wl,-rpath,/global/homes/k/keceli/petsc/arch-cori-gcc/lib -L/global/homes/k/keceli/petsc/arch-cori-gcc/lib -lcmumps -ldmumps -lsmumps -lzmumps -lmumps_common -lpord -lscalapack -lparmetis -lmetis -lptesmumps -lptscotch -lptscotcherr -lscotch -lscotcherr -lrt -lm -lpthread -lz -ldl 
-----------------------------------------

