Siesta Version: siesta-trunk-492
Architecture  : x86_64-unknown-linux-gnu--unknown
Compiler flags: ftn -g -O3  -ffast-math -funroll-loops -I/global/homes/k/keceli/petsc/includee -I/global/homes/k/keceli/petsc/arch-cori-gcc/include -I/global/homes/k/keceli/slepcfork/arch-cori-gcc/include -I/global/homes/k/keceli/slepcfork/include
PP flags      : -DMPI -DFC_HAVE_FLUSH -DFC_HAVE_ABORT 
PARALLEL version

* Running on  512 nodes in parallel
>> Start of run:   2-DEC-2016  12:08:26

                           ***********************       
                           *  WELCOME TO SIESTA  *       
                           ***********************       
WARNING: Siesta is reading its input from file INPUT_DEBUG

reinit: -----------------------------------------------------------------------
reinit: System Name: BN
reinit: -----------------------------------------------------------------------
reinit: System Label: BN                                                          
reinit: -----------------------------------------------------------------------

initatom: Reading input for the pseudopotentials and atomic orbitals ----------
Species number:   1 Atomic number:    5 Label: B
Species number:   2 Atomic number:    7 Label: N

Ground state valence configuration:   2s02  2p01
Reading pseudopotential information in formatted form from B.psf

Valence configuration for pseudopotential generation:
2s( 2.00) rc: 1.74
2p( 1.00) rc: 1.74
3d( 0.00) rc: 1.74
4f( 0.00) rc: 1.74
Ground state valence configuration:   2s02  2p03
Reading pseudopotential information in formatted form from N.psf

Valence configuration for pseudopotential generation:
2s( 2.00) rc: 1.48
2p( 3.00) rc: 1.48
3d( 0.00) rc: 1.48
4f( 0.00) rc: 1.48
For B, standard SIESTA heuristics set lmxkb to 3
 (one more than the basis l, including polarization orbitals).
Use PS.lmax or PS.KBprojectors blocks to override.
For N, standard SIESTA heuristics set lmxkb to 3
 (one more than the basis l, including polarization orbitals).
Use PS.lmax or PS.KBprojectors blocks to override.

<basis_specs>
===============================================================================
B                    Z=   5    Mass=  10.810        Charge= 0.17977+309
Lmxo=1 Lmxkb= 3    BasisType=split      Semic=F
L=0  Nsemic=0  Cnfigmx=2
          n=1  nzeta=2  polorb=0
            splnorm:   0.15000    
               vcte:    0.0000    
               rinn:    0.0000    
               qcoe:    0.0000    
               qyuk:    0.0000    
               qwid:   0.10000E-01
                rcs:    0.0000      0.0000    
            lambdas:    1.0000      1.0000    
L=1  Nsemic=0  Cnfigmx=2
          n=1  nzeta=2  polorb=1
            splnorm:   0.15000    
               vcte:    0.0000    
               rinn:    0.0000    
               qcoe:    0.0000    
               qyuk:    0.0000    
               qwid:   0.10000E-01
                rcs:    0.0000      0.0000    
            lambdas:    1.0000      1.0000    
-------------------------------------------------------------------------------
L=0  Nkbl=1  erefs: 0.17977+309
L=1  Nkbl=1  erefs: 0.17977+309
L=2  Nkbl=1  erefs: 0.17977+309
L=3  Nkbl=1  erefs: 0.17977+309
===============================================================================
</basis_specs>

atom: Called for B                     (Z =   5)

read_vps: Pseudopotential generation method:
read_vps: ATM3      Troullier-Martins                       
Total valence charge:    3.00000

read_vps: Pseudopotential includes a core correction:
read_vps: Pseudo-core for xc-correction

xc_check: Exchange-correlation functional:
xc_check: Ceperley-Alder
V l=0 = -2*Zval/r beyond r=  1.7165
V l=1 = -2*Zval/r beyond r=  1.7165
V l=2 = -2*Zval/r beyond r=  1.7165
V l=3 = -2*Zval/r beyond r=  1.6951
All V_l potentials equal beyond r=  1.7165
This should be close to max(r_c) in ps generation
All pots = -2*Zval/r beyond r=  1.7165

VLOCAL1: 99.0% of the norm of Vloc inside     14.733 Ry
VLOCAL1: 99.9% of the norm of Vloc inside     33.577 Ry
atom: Maximum radius for 4*pi*r*r*local-pseudopot. charge    2.04484
atom: Maximum radius for r*vlocal+2*Zval:    1.75994
GHOST: No ghost state for L =  0
GHOST: No ghost state for L =  1
GHOST: No ghost state for L =  2
GHOST: No ghost state for L =  3

KBgen: Kleinman-Bylander projectors: 
   l= 0   rc=  1.897051   el= -0.689821   Ekb=  4.267659   kbcos=  0.294941
   l= 1   rc=  1.920920   el= -0.273582   Ekb= -2.493518   kbcos= -0.316494
   l= 2   rc=  2.044840   el=  0.002410   Ekb= -0.642570   kbcos= -0.014732
   l= 3   rc=  2.149707   el=  0.003543   Ekb= -0.260486   kbcos= -0.002341

KBgen: Total number of  Kleinman-Bylander projectors:   16
atom: -------------------------------------------------------------------------

atom: SANKEY-TYPE ORBITALS:
atom: Selected multiple-zeta basis: split     

SPLIT: Orbitals with angular momentum L= 0

SPLIT: Basis orbitals for state 2s

SPLIT: PAO cut-off radius determined from an
SPLIT: energy shift=  0.020000 Ry

   izeta = 1
                 lambda =    1.000000
                     rc =    4.906010
                 energy =   -0.672079
                kinetic =    0.600553
    potential(screened) =   -1.272632
       potential(ionic) =   -3.301886

   izeta = 2
                 rmatch =    4.170113
              splitnorm =    0.150000
                 energy =   -0.581071
                kinetic =    0.883210
    potential(screened) =   -1.464280
       potential(ionic) =   -3.607314

SPLIT: Orbitals with angular momentum L= 1

SPLIT: Basis orbitals for state 2p

SPLIT: PAO cut-off radius determined from an
SPLIT: energy shift=  0.020000 Ry

   izeta = 1
                 lambda =    1.000000
                     rc =    5.700051
                 energy =   -0.254269
                kinetic =    1.609303
    potential(screened) =   -1.863571
       potential(ionic) =   -3.822590

   izeta = 2
                 rmatch =    4.275693
              splitnorm =    0.150000
                 energy =   -0.140145
                kinetic =    2.432023
    potential(screened) =   -2.572168
       potential(ionic) =   -4.719137

POLgen: Perturbative polarization orbital with L=  2

POLgen: Polarization orbital for state 2p

   izeta = 1
                     rc =    5.700051
                 energy =    0.829041
                kinetic =    1.746766
    potential(screened) =   -0.917724
       potential(ionic) =   -2.618902
atom: Total number of Sankey-type orbitals: 13

atm_pop: Valence configuration (for local Pseudopot. screening):
 2s( 2.00)                                                            
 2p( 1.00)                                                            
Vna: chval, zval:    3.00000   3.00000

Vna:  Cut-off radius for the neutral-atom potential:   5.700051
comcore: Pseudo-core radius Rcore=  2.122997

atom: _________________________________________________________________________

<basis_specs>
===============================================================================
N                    Z=   7    Mass=  14.010        Charge= 0.17977+309
Lmxo=1 Lmxkb= 3    BasisType=split      Semic=F
L=0  Nsemic=0  Cnfigmx=2
          n=1  nzeta=2  polorb=0
            splnorm:   0.15000    
               vcte:    0.0000    
               rinn:    0.0000    
               qcoe:    0.0000    
               qyuk:    0.0000    
               qwid:   0.10000E-01
                rcs:    0.0000      0.0000    
            lambdas:    1.0000      1.0000    
L=1  Nsemic=0  Cnfigmx=2
          n=1  nzeta=2  polorb=1
            splnorm:   0.15000    
               vcte:    0.0000    
               rinn:    0.0000    
               qcoe:    0.0000    
               qyuk:    0.0000    
               qwid:   0.10000E-01
                rcs:    0.0000      0.0000    
            lambdas:    1.0000      1.0000    
-------------------------------------------------------------------------------
L=0  Nkbl=1  erefs: 0.17977+309
L=1  Nkbl=1  erefs: 0.17977+309
L=2  Nkbl=1  erefs: 0.17977+309
L=3  Nkbl=1  erefs: 0.17977+309
===============================================================================
</basis_specs>

atom: Called for N                     (Z =   7)

read_vps: Pseudopotential generation method:
read_vps: ATM3      Troullier-Martins                       
Total valence charge:    5.00000

xc_check: Exchange-correlation functional:
xc_check: Ceperley-Alder
V l=0 = -2*Zval/r beyond r=  1.4606
V l=1 = -2*Zval/r beyond r=  1.4606
V l=2 = -2*Zval/r beyond r=  1.4606
V l=3 = -2*Zval/r beyond r=  1.4606
All V_l potentials equal beyond r=  1.4606
This should be close to max(r_c) in ps generation
All pots = -2*Zval/r beyond r=  1.4606

VLOCAL1: 99.0% of the norm of Vloc inside     20.347 Ry
VLOCAL1: 99.9% of the norm of Vloc inside     46.372 Ry
atom: Maximum radius for 4*pi*r*r*local-pseudopot. charge    1.76189
atom: Maximum radius for r*vlocal+2*Zval:    1.53550
GHOST: No ghost state for L =  0
GHOST: No ghost state for L =  1
GHOST: No ghost state for L =  2
GHOST: No ghost state for L =  3

KBgen: Kleinman-Bylander projectors: 
   l= 0   rc=  1.634559   el= -1.352239   Ekb=  4.901185   kbcos=  0.337501
   l= 1   rc=  1.614250   el= -0.532623   Ekb= -5.544141   kbcos= -0.433040
   l= 2   rc=  1.740002   el=  0.002346   Ekb= -1.331777   kbcos= -0.007563
   l= 3   rc=  1.806505   el=  0.003449   Ekb= -0.515466   kbcos= -0.000994

KBgen: Total number of  Kleinman-Bylander projectors:   16
atom: -------------------------------------------------------------------------

atom: SANKEY-TYPE ORBITALS:
atom: Selected multiple-zeta basis: split     

SPLIT: Orbitals with angular momentum L= 0

SPLIT: Basis orbitals for state 2s

SPLIT: PAO cut-off radius determined from an
SPLIT: energy shift=  0.020000 Ry

   izeta = 1
                 lambda =    1.000000
                     rc =    3.683980
                 energy =   -1.333780
                kinetic =    1.203249
    potential(screened) =   -2.537029
       potential(ionic) =   -8.126274

   izeta = 2
                 rmatch =    2.905100
              splitnorm =    0.150000
                 energy =   -1.138702
                kinetic =    1.810192
    potential(screened) =   -2.948894
       potential(ionic) =   -8.945013

SPLIT: Orbitals with angular momentum L= 1

SPLIT: Basis orbitals for state 2p

SPLIT: PAO cut-off radius determined from an
SPLIT: energy shift=  0.020000 Ry

   izeta = 1
                 lambda =    1.000000
                     rc =    4.280232
                 energy =   -0.512466
                kinetic =    3.598849
    potential(screened) =   -4.111315
       potential(ionic) =   -9.550563

   izeta = 2
                 rmatch =    2.941647
              splitnorm =    0.150000
                 energy =   -0.292244
                kinetic =    5.357522
    potential(screened) =   -5.649767
       potential(ionic) =  -11.693436

POLgen: Perturbative polarization orbital with L=  2

POLgen: Polarization orbital for state 2p

   izeta = 1
                     rc =    4.280232
                 energy =    1.826084
                kinetic =    3.687342
    potential(screened) =   -1.861257
       potential(ionic) =   -6.363951
atom: Total number of Sankey-type orbitals: 13

atm_pop: Valence configuration (for local Pseudopot. screening):
 2s( 2.00)                                                            
 2p( 3.00)                                                            
Vna: chval, zval:    5.00000   5.00000

Vna:  Cut-off radius for the neutral-atom potential:   4.280232

atom: _________________________________________________________________________

prinput: Basis input ----------------------------------------------------------

PAO.BasisType split     

%block ChemicalSpeciesLabel
    1    5 B                       # Species index, atomic number, species label
    2    7 N                       # Species index, atomic number, species label
%endblock ChemicalSpeciesLabel

%block PAO.Basis                 # Define Basis set
B                     2                    # Species label, number of l-shells
 n=2   0   2                         # n, l, Nzeta 
   4.906      4.170   
   1.000      1.000   
 n=2   1   2 P   1                   # n, l, Nzeta, Polarization, NzetaPol
   5.700      4.276   
   1.000      1.000   
N                     2                    # Species label, number of l-shells
 n=2   0   2                         # n, l, Nzeta 
   3.684      2.905   
   1.000      1.000   
 n=2   1   2 P   1                   # n, l, Nzeta, Polarization, NzetaPol
   4.280      2.942   
   1.000      1.000   
%endblock PAO.Basis

prinput: ----------------------------------------------------------------------

coor:   Atomic-coordinates input format  =     Cartesian coordinates
coor:                                          (in Angstroms)

siesta: Atomic coordinates (Bohr) and species
siesta:      0.00000   2.69415   0.00000  1        1
siesta:      0.00000   5.38829   0.00000  2        2
siesta:      0.00000   6.73536   2.33320  1        3
siesta:      0.00000   9.42951   2.33320  2        4
siesta:      0.00000  10.77658   4.66640  1        5
siesta:      0.00000  13.47073   4.66640  2        6
siesta:      0.00000  14.81780   6.99960  1        7
siesta:      0.00000  17.51195   6.99960  2        8
siesta:      0.00000  18.85902   9.33279  1        9
siesta:      0.00000  21.55317   9.33279  2       10
siesta:      0.00000  22.90024  11.66599  1       11
siesta:      0.00000  25.59439  11.66599  2       12
siesta:      0.00000  26.94146  13.99919  1       13
siesta:      0.00000  29.63560  13.99919  2       14
siesta:      0.00000  30.98268  16.33239  1       15
siesta:      0.00000  33.67682  16.33239  2       16
siesta:      0.00000  35.02390  18.66559  1       17
siesta:      0.00000  37.71804  18.66559  2       18
siesta:      0.00000  39.06511  20.99879  1       19
siesta:      0.00000  41.75926  20.99879  2       20
siesta:      0.00000  43.10633  23.33199  1       21
siesta:      0.00000  45.80048  23.33199  2       22
siesta:      0.00000  47.14755  25.66519  1       23
siesta:      0.00000  49.84170  25.66519  2       24
siesta:      0.00000  51.18877  27.99838  1       25
siesta:      0.00000  53.88292  27.99838  2       26
siesta:      0.00000  55.22999  30.33158  1       27
siesta:      0.00000  57.92414  30.33158  2       28
siesta:      0.00000  59.27121  32.66478  1       29
siesta:      0.00000  61.96535  32.66478  2       30
siesta:      0.00000  63.31243  34.99798  1       31
siesta:      0.00000  66.00657  34.99798  2       32
siesta:      0.00000   6.73536  -2.33320  1       33
siesta:      0.00000   9.42951  -2.33320  2       34
siesta:      0.00000  10.77658   0.00000  1       35
siesta:      0.00000  13.47073   0.00000  2       36
siesta:      0.00000  14.81780   2.33320  1       37
siesta:      0.00000  17.51195   2.33320  2       38
siesta:      0.00000  18.85902   4.66640  1       39
siesta:      0.00000  21.55317   4.66640  2       40
siesta:      0.00000  22.90024   6.99960  1       41
siesta:      0.00000  25.59439   6.99960  2       42
siesta:      0.00000  26.94146   9.33279  1       43
siesta:      0.00000  29.63560   9.33279  2       44
siesta:      0.00000  30.98268  11.66599  1       45
siesta:      0.00000  33.67682  11.66599  2       46
siesta:      0.00000  35.02390  13.99919  1       47
siesta:      0.00000  37.71804  13.99919  2       48
siesta:      0.00000  39.06511  16.33239  1       49
siesta:      0.00000  41.75926  16.33239  2       50
siesta:      0.00000  43.10633  18.66559  1       51
siesta:      0.00000  45.80048  18.66559  2       52
siesta:      0.00000  47.14755  20.99879  1       53
siesta:      0.00000  49.84170  20.99879  2       54
siesta:      0.00000  51.18877  23.33199  1       55
siesta:      0.00000  53.88292  23.33199  2       56
siesta:      0.00000  55.22999  25.66519  1       57
siesta:      0.00000  57.92414  25.66519  2       58
siesta:      0.00000  59.27121  27.99838  1       59
siesta:      0.00000  61.96535  27.99838  2       60
siesta:      0.00000  63.31243  30.33158  1       61
siesta:      0.00000  66.00657  30.33158  2       62
siesta:      0.00000  67.35365  32.66478  1       63
siesta:      0.00000  70.04779  32.66478  2       64
siesta:      0.00000  10.77658  -4.66640  1       65
siesta:      0.00000  13.47073  -4.66640  2       66
siesta:      0.00000  14.81780  -2.33320  1       67
siesta:      0.00000  17.51195  -2.33320  2       68
siesta:      0.00000  18.85902   0.00000  1       69
siesta:      0.00000  21.55317   0.00000  2       70
siesta:      0.00000  22.90024   2.33320  1       71
siesta:      0.00000  25.59439   2.33320  2       72
siesta:      0.00000  26.94146   4.66640  1       73
siesta:      0.00000  29.63560   4.66640  2       74
siesta:      0.00000  30.98268   6.99960  1       75
siesta:      0.00000  33.67682   6.99960  2       76
siesta:      0.00000  35.02390   9.33279  1       77
siesta:      0.00000  37.71804   9.33279  2       78
siesta:      0.00000  39.06511  11.66599  1       79
siesta:      0.00000  41.75926  11.66599  2       80
siesta:      0.00000  43.10633  13.99919  1       81
siesta:      0.00000  45.80048  13.99919  2       82
siesta:      0.00000  47.14755  16.33239  1       83
siesta:      0.00000  49.84170  16.33239  2       84
siesta:      0.00000  51.18877  18.66559  1       85
siesta:      0.00000  53.88292  18.66559  2       86
siesta:      0.00000  55.22999  20.99879  1       87
siesta:      0.00000  57.92414  20.99879  2       88
siesta:      0.00000  59.27121  23.33199  1       89
siesta:      0.00000  61.96535  23.33199  2       90
siesta:      0.00000  63.31243  25.66519  1       91
siesta:      0.00000  66.00657  25.66519  2       92
siesta:      0.00000  67.35365  27.99838  1       93
siesta:      0.00000  70.04779  27.99838  2       94
siesta:      0.00000  71.39486  30.33158  1       95
siesta:      0.00000  74.08901  30.33158  2       96
siesta:      0.00000  14.81780  -6.99960  1       97
siesta:      0.00000  17.51195  -6.99960  2       98
siesta:      0.00000  18.85902  -4.66640  1       99
siesta:      0.00000  21.55317  -4.66640  2      100
siesta:      0.00000  22.90024  -2.33320  1      101
siesta:      0.00000  25.59439  -2.33320  2      102
siesta:      0.00000  26.94146   0.00000  1      103
siesta:      0.00000  29.63560   0.00000  2      104
siesta:      0.00000  30.98268   2.33320  1      105
siesta:      0.00000  33.67682   2.33320  2      106
siesta:      0.00000  35.02390   4.66640  1      107
siesta:      0.00000  37.71804   4.66640  2      108
siesta:      0.00000  39.06511   6.99960  1      109
siesta:      0.00000  41.75926   6.99960  2      110
siesta:      0.00000  43.10633   9.33279  1      111
siesta:      0.00000  45.80048   9.33279  2      112
siesta:      0.00000  47.14755  11.66599  1      113
siesta:      0.00000  49.84170  11.66599  2      114
siesta:      0.00000  51.18877  13.99919  1      115
siesta:      0.00000  53.88292  13.99919  2      116
siesta:      0.00000  55.22999  16.33239  1      117
siesta:      0.00000  57.92414  16.33239  2      118
siesta:      0.00000  59.27121  18.66559  1      119
siesta:      0.00000  61.96535  18.66559  2      120
siesta:      0.00000  63.31243  20.99879  1      121
siesta:      0.00000  66.00657  20.99879  2      122
siesta:      0.00000  67.35365  23.33199  1      123
siesta:      0.00000  70.04779  23.33199  2      124
siesta:      0.00000  71.39486  25.66519  1      125
siesta:      0.00000  74.08901  25.66519  2      126
siesta:      0.00000  75.43608  27.99838  1      127
siesta:      0.00000  78.13023  27.99838  2      128
siesta:      0.00000  18.85902  -9.33279  1      129
siesta:      0.00000  21.55317  -9.33279  2      130
siesta:      0.00000  22.90024  -6.99960  1      131
siesta:      0.00000  25.59439  -6.99960  2      132
siesta:      0.00000  26.94146  -4.66640  1      133
siesta:      0.00000  29.63560  -4.66640  2      134
siesta:      0.00000  30.98268  -2.33320  1      135
siesta:      0.00000  33.67682  -2.33320  2      136
siesta:      0.00000  35.02390   0.00000  1      137
siesta:      0.00000  37.71804   0.00000  2      138
siesta:      0.00000  39.06511   2.33320  1      139
siesta:      0.00000  41.75926   2.33320  2      140
siesta:      0.00000  43.10633   4.66640  1      141
siesta:      0.00000  45.80048   4.66640  2      142
siesta:      0.00000  47.14755   6.99960  1      143
siesta:      0.00000  49.84170   6.99960  2      144
siesta:      0.00000  51.18877   9.33279  1      145
siesta:      0.00000  53.88292   9.33279  2      146
siesta:      0.00000  55.22999  11.66599  1      147
siesta:      0.00000  57.92414  11.66599  2      148
siesta:      0.00000  59.27121  13.99919  1      149
siesta:      0.00000  61.96535  13.99919  2      150
siesta:      0.00000  63.31243  16.33239  1      151
siesta:      0.00000  66.00657  16.33239  2      152
siesta:      0.00000  67.35365  18.66559  1      153
siesta:      0.00000  70.04779  18.66559  2      154
siesta:      0.00000  71.39486  20.99879  1      155
siesta:      0.00000  74.08901  20.99879  2      156
siesta:      0.00000  75.43608  23.33199  1      157
siesta:      0.00000  78.13023  23.33199  2      158
siesta:      0.00000  79.47730  25.66519  1      159
siesta:      0.00000  82.17145  25.66519  2      160
siesta:      0.00000  22.90024 -11.66599  1      161
siesta:      0.00000  25.59439 -11.66599  2      162
siesta:      0.00000  26.94146  -9.33279  1      163
siesta:      0.00000  29.63560  -9.33279  2      164
siesta:      0.00000  30.98268  -6.99960  1      165
siesta:      0.00000  33.67682  -6.99960  2      166
siesta:      0.00000  35.02390  -4.66640  1      167
siesta:      0.00000  37.71804  -4.66640  2      168
siesta:      0.00000  39.06511  -2.33320  1      169
siesta:      0.00000  41.75926  -2.33320  2      170
siesta:      0.00000  43.10633  -0.00000  1      171
siesta:      0.00000  45.80048  -0.00000  2      172
siesta:      0.00000  47.14755   2.33320  1      173
siesta:      0.00000  49.84170   2.33320  2      174
siesta:      0.00000  51.18877   4.66640  1      175
siesta:      0.00000  53.88292   4.66640  2      176
siesta:      0.00000  55.22999   6.99960  1      177
siesta:      0.00000  57.92414   6.99960  2      178
siesta:      0.00000  59.27121   9.33279  1      179
siesta:      0.00000  61.96535   9.33279  2      180
siesta:      0.00000  63.31243  11.66599  1      181
siesta:      0.00000  66.00657  11.66599  2      182
siesta:      0.00000  67.35365  13.99919  1      183
siesta:      0.00000  70.04779  13.99919  2      184
siesta:      0.00000  71.39486  16.33239  1      185
siesta:      0.00000  74.08901  16.33239  2      186
siesta:      0.00000  75.43608  18.66559  1      187
siesta:      0.00000  78.13023  18.66559  2      188
siesta:      0.00000  79.47730  20.99879  1      189
siesta:      0.00000  82.17145  20.99879  2      190
siesta:      0.00000  83.51852  23.33199  1      191
siesta:      0.00000  86.21267  23.33199  2      192
siesta:      0.00000  26.94146 -13.99919  1      193
siesta:      0.00000  29.63560 -13.99919  2      194
siesta:      0.00000  30.98268 -11.66599  1      195
siesta:      0.00000  33.67682 -11.66599  2      196
siesta:      0.00000  35.02390  -9.33279  1      197
siesta:      0.00000  37.71804  -9.33279  2      198
siesta:      0.00000  39.06511  -6.99960  1      199
siesta:      0.00000  41.75926  -6.99960  2      200
siesta:      0.00000  43.10633  -4.66640  1      201
siesta:      0.00000  45.80048  -4.66640  2      202
siesta:      0.00000  47.14755  -2.33320  1      203
siesta:      0.00000  49.84170  -2.33320  2      204
siesta:      0.00000  51.18877   0.00000  1      205
siesta:      0.00000  53.88292   0.00000  2      206
siesta:      0.00000  55.22999   2.33320  1      207
siesta:      0.00000  57.92414   2.33320  2      208
siesta:      0.00000  59.27121   4.66640  1      209
siesta:      0.00000  61.96535   4.66640  2      210
siesta:      0.00000  63.31243   6.99960  1      211
siesta:      0.00000  66.00657   6.99960  2      212
siesta:      0.00000  67.35365   9.33279  1      213
siesta:      0.00000  70.04779   9.33279  2      214
siesta:      0.00000  71.39486  11.66599  1      215
siesta:      0.00000  74.08901  11.66599  2      216
siesta:      0.00000  75.43608  13.99919  1      217
siesta:      0.00000  78.13023  13.99919  2      218
siesta:      0.00000  79.47730  16.33239  1      219
siesta:      0.00000  82.17145  16.33239  2      220
siesta:      0.00000  83.51852  18.66559  1      221
siesta:      0.00000  86.21267  18.66559  2      222
siesta:      0.00000  87.55974  20.99879  1      223
siesta:      0.00000  90.25388  20.99879  2      224
siesta:      0.00000  30.98268 -16.33239  1      225
siesta:      0.00000  33.67682 -16.33239  2      226
siesta:      0.00000  35.02390 -13.99919  1      227
siesta:      0.00000  37.71804 -13.99919  2      228
siesta:      0.00000  39.06511 -11.66599  1      229
siesta:      0.00000  41.75926 -11.66599  2      230
siesta:      0.00000  43.10633  -9.33279  1      231
siesta:      0.00000  45.80048  -9.33279  2      232
siesta:      0.00000  47.14755  -6.99960  1      233
siesta:      0.00000  49.84170  -6.99960  2      234
siesta:      0.00000  51.18877  -4.66640  1      235
siesta:      0.00000  53.88292  -4.66640  2      236
siesta:      0.00000  55.22999  -2.33320  1      237
siesta:      0.00000  57.92414  -2.33320  2      238
siesta:      0.00000  59.27121   0.00000  1      239
siesta:      0.00000  61.96535   0.00000  2      240
siesta:      0.00000  63.31243   2.33320  1      241
siesta:      0.00000  66.00657   2.33320  2      242
siesta:      0.00000  67.35365   4.66640  1      243
siesta:      0.00000  70.04779   4.66640  2      244
siesta:      0.00000  71.39486   6.99960  1      245
siesta:      0.00000  74.08901   6.99960  2      246
siesta:      0.00000  75.43608   9.33279  1      247
siesta:      0.00000  78.13023   9.33279  2      248
siesta:      0.00000  79.47730  11.66599  1      249
siesta:      0.00000  82.17145  11.66599  2      250
siesta:      0.00000  83.51852  13.99919  1      251
siesta:      0.00000  86.21267  13.99919  2      252
siesta:      0.00000  87.55974  16.33239  1      253
siesta:      0.00000  90.25388  16.33239  2      254
siesta:      0.00000  91.60096  18.66559  1      255
siesta:      0.00000  94.29510  18.66559  2      256
siesta:      0.00000  35.02390 -18.66559  1      257
siesta:      0.00000  37.71804 -18.66559  2      258
siesta:      0.00000  39.06511 -16.33239  1      259
siesta:      0.00000  41.75926 -16.33239  2      260
siesta:      0.00000  43.10633 -13.99919  1      261
siesta:      0.00000  45.80048 -13.99919  2      262
siesta:      0.00000  47.14755 -11.66599  1      263
siesta:      0.00000  49.84170 -11.66599  2      264
siesta:      0.00000  51.18877  -9.33279  1      265
siesta:      0.00000  53.88292  -9.33279  2      266
siesta:      0.00000  55.22999  -6.99960  1      267
siesta:      0.00000  57.92414  -6.99960  2      268
siesta:      0.00000  59.27121  -4.66640  1      269
siesta:      0.00000  61.96535  -4.66640  2      270
siesta:      0.00000  63.31243  -2.33320  1      271
siesta:      0.00000  66.00657  -2.33320  2      272
siesta:      0.00000  67.35365   0.00000  1      273
siesta:      0.00000  70.04779   0.00000  2      274
siesta:      0.00000  71.39486   2.33320  1      275
siesta:      0.00000  74.08901   2.33320  2      276
siesta:      0.00000  75.43608   4.66640  1      277
siesta:      0.00000  78.13023   4.66640  2      278
siesta:      0.00000  79.47730   6.99960  1      279
siesta:      0.00000  82.17145   6.99960  2      280
siesta:      0.00000  83.51852   9.33279  1      281
siesta:      0.00000  86.21267   9.33279  2      282
siesta:      0.00000  87.55974  11.66599  1      283
siesta:      0.00000  90.25388  11.66599  2      284
siesta:      0.00000  91.60096  13.99919  1      285
siesta:      0.00000  94.29510  13.99919  2      286
siesta:      0.00000  95.64218  16.33239  1      287
siesta:      0.00000  98.33632  16.33239  2      288
siesta:      0.00000  39.06511 -20.99879  1      289
siesta:      0.00000  41.75926 -20.99879  2      290
siesta:      0.00000  43.10633 -18.66559  1      291
siesta:      0.00000  45.80048 -18.66559  2      292
siesta:      0.00000  47.14755 -16.33239  1      293
siesta:      0.00000  49.84170 -16.33239  2      294
siesta:      0.00000  51.18877 -13.99919  1      295
siesta:      0.00000  53.88292 -13.99919  2      296
siesta:      0.00000  55.22999 -11.66599  1      297
siesta:      0.00000  57.92414 -11.66599  2      298
siesta:      0.00000  59.27121  -9.33279  1      299
siesta:      0.00000  61.96535  -9.33279  2      300
siesta:      0.00000  63.31243  -6.99960  1      301
siesta:      0.00000  66.00657  -6.99960  2      302
siesta:      0.00000  67.35365  -4.66640  1      303
siesta:      0.00000  70.04779  -4.66640  2      304
siesta:      0.00000  71.39486  -2.33320  1      305
siesta:      0.00000  74.08901  -2.33320  2      306
siesta:      0.00000  75.43608  -0.00000  1      307
siesta:      0.00000  78.13023  -0.00000  2      308
siesta:      0.00000  79.47730   2.33320  1      309
siesta:      0.00000  82.17145   2.33320  2      310
siesta:      0.00000  83.51852   4.66640  1      311
siesta:      0.00000  86.21267   4.66640  2      312
siesta:      0.00000  87.55974   6.99960  1      313
siesta:      0.00000  90.25388   6.99960  2      314
siesta:      0.00000  91.60096   9.33279  1      315
siesta:      0.00000  94.29510   9.33279  2      316
siesta:      0.00000  95.64218  11.66599  1      317
siesta:      0.00000  98.33632  11.66599  2      318
siesta:      0.00000  99.68340  13.99919  1      319
siesta:      0.00000 102.37754  13.99919  2      320
siesta:      0.00000  43.10633 -23.33199  1      321
siesta:      0.00000  45.80048 -23.33199  2      322
siesta:      0.00000  47.14755 -20.99879  1      323
siesta:      0.00000  49.84170 -20.99879  2      324
siesta:      0.00000  51.18877 -18.66559  1      325
siesta:      0.00000  53.88292 -18.66559  2      326
siesta:      0.00000  55.22999 -16.33239  1      327
siesta:      0.00000  57.92414 -16.33239  2      328
siesta:      0.00000  59.27121 -13.99919  1      329
siesta:      0.00000  61.96535 -13.99919  2      330
siesta:      0.00000  63.31243 -11.66599  1      331
siesta:      0.00000  66.00657 -11.66599  2      332
siesta:      0.00000  67.35365  -9.33279  1      333
siesta:      0.00000  70.04779  -9.33279  2      334
siesta:      0.00000  71.39486  -6.99960  1      335
siesta:      0.00000  74.08901  -6.99960  2      336
siesta:      0.00000  75.43608  -4.66640  1      337
siesta:      0.00000  78.13023  -4.66640  2      338
siesta:      0.00000  79.47730  -2.33320  1      339
siesta:      0.00000  82.17145  -2.33320  2      340
siesta:      0.00000  83.51852  -0.00000  1      341
siesta:      0.00000  86.21267  -0.00000  2      342
siesta:      0.00000  87.55974   2.33320  1      343
siesta:      0.00000  90.25388   2.33320  2      344
siesta:      0.00000  91.60096   4.66640  1      345
siesta:      0.00000  94.29510   4.66640  2      346
siesta:      0.00000  95.64218   6.99960  1      347
siesta:      0.00000  98.33632   6.99960  2      348
siesta:      0.00000  99.68340   9.33279  1      349
siesta:      0.00000 102.37754   9.33279  2      350
siesta:      0.00000 103.72461  11.66599  1      351
siesta:      0.00000 106.41876  11.66599  2      352
siesta:      0.00000  47.14755 -25.66519  1      353
siesta:      0.00000  49.84170 -25.66519  2      354
siesta:      0.00000  51.18877 -23.33199  1      355
siesta:      0.00000  53.88292 -23.33199  2      356
siesta:      0.00000  55.22999 -20.99879  1      357
siesta:      0.00000  57.92414 -20.99879  2      358
siesta:      0.00000  59.27121 -18.66559  1      359
siesta:      0.00000  61.96535 -18.66559  2      360
siesta:      0.00000  63.31243 -16.33239  1      361
siesta:      0.00000  66.00657 -16.33239  2      362
siesta:      0.00000  67.35365 -13.99919  1      363
siesta:      0.00000  70.04779 -13.99919  2      364
siesta:      0.00000  71.39486 -11.66599  1      365
siesta:      0.00000  74.08901 -11.66599  2      366
siesta:      0.00000  75.43608  -9.33279  1      367
siesta:      0.00000  78.13023  -9.33279  2      368
siesta:      0.00000  79.47730  -6.99960  1      369
siesta:      0.00000  82.17145  -6.99960  2      370
siesta:      0.00000  83.51852  -4.66640  1      371
siesta:      0.00000  86.21267  -4.66640  2      372
siesta:      0.00000  87.55974  -2.33320  1      373
siesta:      0.00000  90.25388  -2.33320  2      374
siesta:      0.00000  91.60096  -0.00000  1      375
siesta:      0.00000  94.29510  -0.00000  2      376
siesta:      0.00000  95.64218   2.33320  1      377
siesta:      0.00000  98.33632   2.33320  2      378
siesta:      0.00000  99.68340   4.66640  1      379
siesta:      0.00000 102.37754   4.66640  2      380
siesta:      0.00000 103.72461   6.99960  1      381
siesta:      0.00000 106.41876   6.99960  2      382
siesta:      0.00000 107.76583   9.33279  1      383
siesta:      0.00000 110.45998   9.33279  2      384
siesta:      0.00000  51.18877 -27.99838  1      385
siesta:      0.00000  53.88292 -27.99838  2      386
siesta:      0.00000  55.22999 -25.66519  1      387
siesta:      0.00000  57.92414 -25.66519  2      388
siesta:      0.00000  59.27121 -23.33199  1      389
siesta:      0.00000  61.96535 -23.33199  2      390
siesta:      0.00000  63.31243 -20.99879  1      391
siesta:      0.00000  66.00657 -20.99879  2      392
siesta:      0.00000  67.35365 -18.66559  1      393
siesta:      0.00000  70.04779 -18.66559  2      394
siesta:      0.00000  71.39486 -16.33239  1      395
siesta:      0.00000  74.08901 -16.33239  2      396
siesta:      0.00000  75.43608 -13.99919  1      397
siesta:      0.00000  78.13023 -13.99919  2      398
siesta:      0.00000  79.47730 -11.66599  1      399
siesta:      0.00000  82.17145 -11.66599  2      400
siesta:      0.00000  83.51852  -9.33279  1      401
siesta:      0.00000  86.21267  -9.33279  2      402
siesta:      0.00000  87.55974  -6.99960  1      403
siesta:      0.00000  90.25388  -6.99960  2      404
siesta:      0.00000  91.60096  -4.66640  1      405
siesta:      0.00000  94.29510  -4.66640  2      406
siesta:      0.00000  95.64218  -2.33320  1      407
siesta:      0.00000  98.33632  -2.33320  2      408
siesta:      0.00000  99.68340   0.00000  1      409
siesta:      0.00000 102.37754   0.00000  2      410
siesta:      0.00000 103.72461   2.33320  1      411
siesta:      0.00000 106.41876   2.33320  2      412
siesta:      0.00000 107.76583   4.66640  1      413
siesta:      0.00000 110.45998   4.66640  2      414
siesta:      0.00000 111.80705   6.99960  1      415
siesta:      0.00000 114.50120   6.99960  2      416
siesta:      0.00000  55.22999 -30.33158  1      417
siesta:      0.00000  57.92414 -30.33158  2      418
siesta:      0.00000  59.27121 -27.99838  1      419
siesta:      0.00000  61.96535 -27.99838  2      420
siesta:      0.00000  63.31243 -25.66519  1      421
siesta:      0.00000  66.00657 -25.66519  2      422
siesta:      0.00000  67.35365 -23.33199  1      423
siesta:      0.00000  70.04779 -23.33199  2      424
siesta:      0.00000  71.39486 -20.99879  1      425
siesta:      0.00000  74.08901 -20.99879  2      426
siesta:      0.00000  75.43608 -18.66559  1      427
siesta:      0.00000  78.13023 -18.66559  2      428
siesta:      0.00000  79.47730 -16.33239  1      429
siesta:      0.00000  82.17145 -16.33239  2      430
siesta:      0.00000  83.51852 -13.99919  1      431
siesta:      0.00000  86.21267 -13.99919  2      432
siesta:      0.00000  87.55974 -11.66599  1      433
siesta:      0.00000  90.25388 -11.66599  2      434
siesta:      0.00000  91.60096  -9.33279  1      435
siesta:      0.00000  94.29510  -9.33279  2      436
siesta:      0.00000  95.64218  -6.99960  1      437
siesta:      0.00000  98.33632  -6.99960  2      438
siesta:      0.00000  99.68340  -4.66640  1      439
siesta:      0.00000 102.37754  -4.66640  2      440
siesta:      0.00000 103.72461  -2.33320  1      441
siesta:      0.00000 106.41876  -2.33320  2      442
siesta:      0.00000 107.76583   0.00000  1      443
siesta:      0.00000 110.45998   0.00000  2      444
siesta:      0.00000 111.80705   2.33320  1      445
siesta:      0.00000 114.50120   2.33320  2      446
siesta:      0.00000 115.84827   4.66640  1      447
siesta:      0.00000 118.54242   4.66640  2      448
siesta:      0.00000  59.27121 -32.66478  1      449
siesta:      0.00000  61.96535 -32.66478  2      450
siesta:      0.00000  63.31243 -30.33158  1      451
siesta:      0.00000  66.00657 -30.33158  2      452
siesta:      0.00000  67.35365 -27.99838  1      453
siesta:      0.00000  70.04779 -27.99838  2      454
siesta:      0.00000  71.39486 -25.66519  1      455
siesta:      0.00000  74.08901 -25.66519  2      456
siesta:      0.00000  75.43608 -23.33199  1      457
siesta:      0.00000  78.13023 -23.33199  2      458
siesta:      0.00000  79.47730 -20.99879  1      459
siesta:      0.00000  82.17145 -20.99879  2      460
siesta:      0.00000  83.51852 -18.66559  1      461
siesta:      0.00000  86.21267 -18.66559  2      462
siesta:      0.00000  87.55974 -16.33239  1      463
siesta:      0.00000  90.25388 -16.33239  2      464
siesta:      0.00000  91.60096 -13.99919  1      465
siesta:      0.00000  94.29510 -13.99919  2      466
siesta:      0.00000  95.64218 -11.66599  1      467
siesta:      0.00000  98.33632 -11.66599  2      468
siesta:      0.00000  99.68340  -9.33279  1      469
siesta:      0.00000 102.37754  -9.33279  2      470
siesta:      0.00000 103.72461  -6.99960  1      471
siesta:      0.00000 106.41876  -6.99960  2      472
siesta:      0.00000 107.76583  -4.66640  1      473
siesta:      0.00000 110.45998  -4.66640  2      474
siesta:      0.00000 111.80705  -2.33320  1      475
siesta:      0.00000 114.50120  -2.33320  2      476
siesta:      0.00000 115.84827   0.00000  1      477
siesta:      0.00000 118.54242   0.00000  2      478
siesta:      0.00000 119.88949   2.33320  1      479
siesta:      0.00000 122.58363   2.33320  2      480
siesta:      0.00000  63.31243 -34.99798  1      481
siesta:      0.00000  66.00657 -34.99798  2      482
siesta:      0.00000  67.35365 -32.66478  1      483
siesta:      0.00000  70.04779 -32.66478  2      484
siesta:      0.00000  71.39486 -30.33158  1      485
siesta:      0.00000  74.08901 -30.33158  2      486
siesta:      0.00000  75.43608 -27.99838  1      487
siesta:      0.00000  78.13023 -27.99838  2      488
siesta:      0.00000  79.47730 -25.66519  1      489
siesta:      0.00000  82.17145 -25.66519  2      490
siesta:      0.00000  83.51852 -23.33199  1      491
siesta:      0.00000  86.21267 -23.33199  2      492
siesta:      0.00000  87.55974 -20.99879  1      493
siesta:      0.00000  90.25388 -20.99879  2      494
siesta:      0.00000  91.60096 -18.66559  1      495
siesta:      0.00000  94.29510 -18.66559  2      496
siesta:      0.00000  95.64218 -16.33239  1      497
siesta:      0.00000  98.33632 -16.33239  2      498
siesta:      0.00000  99.68340 -13.99919  1      499
siesta:      0.00000 102.37754 -13.99919  2      500
siesta:      0.00000 103.72461 -11.66599  1      501
siesta:      0.00000 106.41876 -11.66599  2      502
siesta:      0.00000 107.76583  -9.33279  1      503
siesta:      0.00000 110.45998  -9.33279  2      504
siesta:      0.00000 111.80705  -6.99960  1      505
siesta:      0.00000 114.50120  -6.99960  2      506
siesta:      0.00000 115.84827  -4.66640  1      507
siesta:      0.00000 118.54242  -4.66640  2      508
siesta:      0.00000 119.88949  -2.33320  1      509
siesta:      0.00000 122.58363  -2.33320  2      510
siesta:      0.00000 123.93071   0.00000  1      511
siesta:      0.00000 126.62485   0.00000  2      512

siesta: System type = slab      

initatomlists: Number of atoms, orbitals, and projectors:    512  6656  8192

siesta: ******************** Simulation parameters ****************************
siesta:
siesta: The following are some of the parameters of the simulation.
siesta: A complete list of the parameters used, including default values,
siesta: can be found in file out.fdf
siesta:
redata: Non-Collinear-spin run           =     F
redata: SpinPolarized (Up/Down) run      =     F
redata: Number of spin components        =     1
redata: Long output                      =     F
redata: Number of Atomic Species         =        2
redata: Charge density info will appear in .RHO file
redata: Write Mulliken Pop.              =     NO
redata: Mesh Cutoff                      =   100.0000  Ry
redata: Net charge of the system         =     0.0000 |e|
redata: Min. number of SCF Iter          =        0
redata: Max. number of SCF Iter          =       50
redata: Mix DM or H after convergence    =     F
redata: Recompute H after scf cycle      =     F
redata: Performing Pulay mixing using    =     3 iterations
redata: Mix DM in first SCF step ?       =     F
redata: Write Pulay info on disk?        =     F
redata: Discard 1st Pulay DM after  kick =     F
redata: New DM Mixing Weight             =     0.3000
redata: New DM Occupancy tolerance       = 0.000000000001
redata: No kicks to SCF
redata: DM Mixing Weight for Kicks       =     0.5000
redata: DM Tolerance for SCF             =     0.000100
redata: Require (free) Energy convergence in SCF =     F
redata: DM (free)Energy tolerance for SCF =     0.000010 eV
redata: Require Harris convergence for SCF =     F
redata: DM Harris energy tolerance for SCF =     0.000010 eV
redata: Using Saved Data (generic)   =     F
redata: Use continuation files for DM    =     F
redata: Neglect nonoverlap interactions  =     F
redata: Method of Calculation            =     old SLEPc
redata: Fix the spin of the system       =     F
redata: Dynamics option                  =     Single-point calculation
redata: ***********************************************************************
Total number of electrons:  2048.000000
Total ionic charge:  2048.000000

* ProcessorY, Blocksize:   16  13


* Orbital distribution balance (max,min):    13    13

 Kpoints in:            1 . Kpoints trimmed:            1

siesta: k-grid: Number of k-points =     1
siesta: k-grid: Cutoff (effective) =    10.000 Ang
siesta: k-grid: Supercell and displacements
siesta: k-grid:    1   0   0      0.000
siesta: k-grid:    0   1   0      0.000
siesta: k-grid:    0   0   1      0.000

                     ====================================
                        Single-point calculation
                     ====================================

outcell: Unit cell vectors (Ang):
       20.000000    0.000000    0.000000
        0.000000   34.216320   19.754802
        0.000000   34.216320  -19.754802

outcell: Cell vector modules (Ang)   :   20.000000   39.509603   39.509603
outcell: Cell angles (23,13,12) (deg):     60.0000     90.0000     90.0000
outcell: Cell volume (Ang**3)        :  27037.4645
New_DM. Step:     1
Initializing Density Matrix...
New grid distribution:   1
           1       1:   64    1:    7    1:    4
           2       1:   64    1:    7    5:    8
           3       1:   64    1:    7    9:   12
           4       1:   64    1:    7   13:   16
           5       1:   64    1:    7   17:   20
           6       1:   64    1:    7   21:   24
           7       1:   64    1:    7   25:   28
           8       1:   64    1:    7   29:   32
           9       1:   64    1:    7   33:   36
          10       1:   64    1:    7   37:   40
          11       1:   64    1:    7   41:   44
          12       1:   64    1:    7   45:   48
          13       1:   64    1:    7   49:   51
          14       1:   64    1:    7   52:   54
          15       1:   64    1:    7   55:   57
          16       1:   64    1:    7   58:   60
          17       1:   64    1:    7   61:   63
          18       1:   64    1:    7   64:   66
          19       1:   64    1:    7   67:   69
          20       1:   64    1:    7   70:   72
          21       1:   64    1:    7   73:   75
          22       1:   64    1:    7   76:   78
          23       1:   64    1:    7   79:   81
          24       1:   64    1:    7   82:   84
          25       1:   64    1:    7   85:   87
          26       1:   64    1:    7   88:   90
          27       1:   64    1:    7   91:   93
          28       1:   64    1:    7   94:   96
          29       1:   64    1:    7   97:   99
          30       1:   64    1:    7  100:  102
          31       1:   64    1:    7  103:  105
          32       1:   64    1:    7  106:  108
          33       1:   64    8:   14    1:    4
          34       1:   64    8:   14    5:    8
          35       1:   64    8:   14    9:   12
          36       1:   64    8:   14   13:   16
          37       1:   64    8:   14   17:   20
          38       1:   64    8:   14   21:   24
          39       1:   64    8:   14   25:   28
          40       1:   64    8:   14   29:   32
          41       1:   64    8:   14   33:   36
          42       1:   64    8:   14   37:   40
          43       1:   64    8:   14   41:   44
          44       1:   64    8:   14   45:   48
          45       1:   64    8:   14   49:   51
          46       1:   64    8:   14   52:   54
          47       1:   64    8:   14   55:   57
          48       1:   64    8:   14   58:   60
          49       1:   64    8:   14   61:   63
          50       1:   64    8:   14   64:   66
          51       1:   64    8:   14   67:   69
          52       1:   64    8:   14   70:   72
          53       1:   64    8:   14   73:   75
          54       1:   64    8:   14   76:   78
          55       1:   64    8:   14   79:   81
          56       1:   64    8:   14   82:   84
          57       1:   64    8:   14   85:   87
          58       1:   64    8:   14   88:   90
          59       1:   64    8:   14   91:   93
          60       1:   64    8:   14   94:   96
          61       1:   64    8:   14   97:   99
          62       1:   64    8:   14  100:  102
          63       1:   64    8:   14  103:  105
          64       1:   64    8:   14  106:  108
          65       1:   64   15:   21    1:    4
          66       1:   64   15:   21    5:    8
          67       1:   64   15:   21    9:   12
          68       1:   64   15:   21   13:   16
          69       1:   64   15:   21   17:   20
          70       1:   64   15:   21   21:   24
          71       1:   64   15:   21   25:   28
          72       1:   64   15:   21   29:   32
          73       1:   64   15:   21   33:   36
          74       1:   64   15:   21   37:   40
          75       1:   64   15:   21   41:   44
          76       1:   64   15:   21   45:   48
          77       1:   64   15:   21   49:   51
          78       1:   64   15:   21   52:   54
          79       1:   64   15:   21   55:   57
          80       1:   64   15:   21   58:   60
          81       1:   64   15:   21   61:   63
          82       1:   64   15:   21   64:   66
          83       1:   64   15:   21   67:   69
          84       1:   64   15:   21   70:   72
          85       1:   64   15:   21   73:   75
          86       1:   64   15:   21   76:   78
          87       1:   64   15:   21   79:   81
          88       1:   64   15:   21   82:   84
          89       1:   64   15:   21   85:   87
          90       1:   64   15:   21   88:   90
          91       1:   64   15:   21   91:   93
          92       1:   64   15:   21   94:   96
          93       1:   64   15:   21   97:   99
          94       1:   64   15:   21  100:  102
          95       1:   64   15:   21  103:  105
          96       1:   64   15:   21  106:  108
          97       1:   64   22:   28    1:    4
          98       1:   64   22:   28    5:    8
          99       1:   64   22:   28    9:   12
         100       1:   64   22:   28   13:   16
         101       1:   64   22:   28   17:   20
         102       1:   64   22:   28   21:   24
         103       1:   64   22:   28   25:   28
         104       1:   64   22:   28   29:   32
         105       1:   64   22:   28   33:   36
         106       1:   64   22:   28   37:   40
         107       1:   64   22:   28   41:   44
         108       1:   64   22:   28   45:   48
         109       1:   64   22:   28   49:   51
         110       1:   64   22:   28   52:   54
         111       1:   64   22:   28   55:   57
         112       1:   64   22:   28   58:   60
         113       1:   64   22:   28   61:   63
         114       1:   64   22:   28   64:   66
         115       1:   64   22:   28   67:   69
         116       1:   64   22:   28   70:   72
         117       1:   64   22:   28   73:   75
         118       1:   64   22:   28   76:   78
         119       1:   64   22:   28   79:   81
         120       1:   64   22:   28   82:   84
         121       1:   64   22:   28   85:   87
         122       1:   64   22:   28   88:   90
         123       1:   64   22:   28   91:   93
         124       1:   64   22:   28   94:   96
         125       1:   64   22:   28   97:   99
         126       1:   64   22:   28  100:  102
         127       1:   64   22:   28  103:  105
         128       1:   64   22:   28  106:  108
         129       1:   64   29:   35    1:    4
         130       1:   64   29:   35    5:    8
         131       1:   64   29:   35    9:   12
         132       1:   64   29:   35   13:   16
         133       1:   64   29:   35   17:   20
         134       1:   64   29:   35   21:   24
         135       1:   64   29:   35   25:   28
         136       1:   64   29:   35   29:   32
         137       1:   64   29:   35   33:   36
         138       1:   64   29:   35   37:   40
         139       1:   64   29:   35   41:   44
         140       1:   64   29:   35   45:   48
         141       1:   64   29:   35   49:   51
         142       1:   64   29:   35   52:   54
         143       1:   64   29:   35   55:   57
         144       1:   64   29:   35   58:   60
         145       1:   64   29:   35   61:   63
         146       1:   64   29:   35   64:   66
         147       1:   64   29:   35   67:   69
         148       1:   64   29:   35   70:   72
         149       1:   64   29:   35   73:   75
         150       1:   64   29:   35   76:   78
         151       1:   64   29:   35   79:   81
         152       1:   64   29:   35   82:   84
         153       1:   64   29:   35   85:   87
         154       1:   64   29:   35   88:   90
         155       1:   64   29:   35   91:   93
         156       1:   64   29:   35   94:   96
         157       1:   64   29:   35   97:   99
         158       1:   64   29:   35  100:  102
         159       1:   64   29:   35  103:  105
         160       1:   64   29:   35  106:  108
         161       1:   64   36:   42    1:    4
         162       1:   64   36:   42    5:    8
         163       1:   64   36:   42    9:   12
         164       1:   64   36:   42   13:   16
         165       1:   64   36:   42   17:   20
         166       1:   64   36:   42   21:   24
         167       1:   64   36:   42   25:   28
         168       1:   64   36:   42   29:   32
         169       1:   64   36:   42   33:   36
         170       1:   64   36:   42   37:   40
         171       1:   64   36:   42   41:   44
         172       1:   64   36:   42   45:   48
         173       1:   64   36:   42   49:   51
         174       1:   64   36:   42   52:   54
         175       1:   64   36:   42   55:   57
         176       1:   64   36:   42   58:   60
         177       1:   64   36:   42   61:   63
         178       1:   64   36:   42   64:   66
         179       1:   64   36:   42   67:   69
         180       1:   64   36:   42   70:   72
         181       1:   64   36:   42   73:   75
         182       1:   64   36:   42   76:   78
         183       1:   64   36:   42   79:   81
         184       1:   64   36:   42   82:   84
         185       1:   64   36:   42   85:   87
         186       1:   64   36:   42   88:   90
         187       1:   64   36:   42   91:   93
         188       1:   64   36:   42   94:   96
         189       1:   64   36:   42   97:   99
         190       1:   64   36:   42  100:  102
         191       1:   64   36:   42  103:  105
         192       1:   64   36:   42  106:  108
         193       1:   64   43:   49    1:    4
         194       1:   64   43:   49    5:    8
         195       1:   64   43:   49    9:   12
         196       1:   64   43:   49   13:   16
         197       1:   64   43:   49   17:   20
         198       1:   64   43:   49   21:   24
         199       1:   64   43:   49   25:   28
         200       1:   64   43:   49   29:   32
         201       1:   64   43:   49   33:   36
         202       1:   64   43:   49   37:   40
         203       1:   64   43:   49   41:   44
         204       1:   64   43:   49   45:   48
         205       1:   64   43:   49   49:   51
         206       1:   64   43:   49   52:   54
         207       1:   64   43:   49   55:   57
         208       1:   64   43:   49   58:   60
         209       1:   64   43:   49   61:   63
         210       1:   64   43:   49   64:   66
         211       1:   64   43:   49   67:   69
         212       1:   64   43:   49   70:   72
         213       1:   64   43:   49   73:   75
         214       1:   64   43:   49   76:   78
         215       1:   64   43:   49   79:   81
         216       1:   64   43:   49   82:   84
         217       1:   64   43:   49   85:   87
         218       1:   64   43:   49   88:   90
         219       1:   64   43:   49   91:   93
         220       1:   64   43:   49   94:   96
         221       1:   64   43:   49   97:   99
         222       1:   64   43:   49  100:  102
         223       1:   64   43:   49  103:  105
         224       1:   64   43:   49  106:  108
         225       1:   64   50:   56    1:    4
         226       1:   64   50:   56    5:    8
         227       1:   64   50:   56    9:   12
         228       1:   64   50:   56   13:   16
         229       1:   64   50:   56   17:   20
         230       1:   64   50:   56   21:   24
         231       1:   64   50:   56   25:   28
         232       1:   64   50:   56   29:   32
         233       1:   64   50:   56   33:   36
         234       1:   64   50:   56   37:   40
         235       1:   64   50:   56   41:   44
         236       1:   64   50:   56   45:   48
         237       1:   64   50:   56   49:   51
         238       1:   64   50:   56   52:   54
         239       1:   64   50:   56   55:   57
         240       1:   64   50:   56   58:   60
         241       1:   64   50:   56   61:   63
         242       1:   64   50:   56   64:   66
         243       1:   64   50:   56   67:   69
         244       1:   64   50:   56   70:   72
         245       1:   64   50:   56   73:   75
         246       1:   64   50:   56   76:   78
         247       1:   64   50:   56   79:   81
         248       1:   64   50:   56   82:   84
         249       1:   64   50:   56   85:   87
         250       1:   64   50:   56   88:   90
         251       1:   64   50:   56   91:   93
         252       1:   64   50:   56   94:   96
         253       1:   64   50:   56   97:   99
         254       1:   64   50:   56  100:  102
         255       1:   64   50:   56  103:  105
         256       1:   64   50:   56  106:  108
         257       1:   64   57:   63    1:    4
         258       1:   64   57:   63    5:    8
         259       1:   64   57:   63    9:   12
         260       1:   64   57:   63   13:   16
         261       1:   64   57:   63   17:   20
         262       1:   64   57:   63   21:   24
         263       1:   64   57:   63   25:   28
         264       1:   64   57:   63   29:   32
         265       1:   64   57:   63   33:   36
         266       1:   64   57:   63   37:   40
         267       1:   64   57:   63   41:   44
         268       1:   64   57:   63   45:   48
         269       1:   64   57:   63   49:   51
         270       1:   64   57:   63   52:   54
         271       1:   64   57:   63   55:   57
         272       1:   64   57:   63   58:   60
         273       1:   64   57:   63   61:   63
         274       1:   64   57:   63   64:   66
         275       1:   64   57:   63   67:   69
         276       1:   64   57:   63   70:   72
         277       1:   64   57:   63   73:   75
         278       1:   64   57:   63   76:   78
         279       1:   64   57:   63   79:   81
         280       1:   64   57:   63   82:   84
         281       1:   64   57:   63   85:   87
         282       1:   64   57:   63   88:   90
         283       1:   64   57:   63   91:   93
         284       1:   64   57:   63   94:   96
         285       1:   64   57:   63   97:   99
         286       1:   64   57:   63  100:  102
         287       1:   64   57:   63  103:  105
         288       1:   64   57:   63  106:  108
         289       1:   64   64:   70    1:    4
         290       1:   64   64:   70    5:    8
         291       1:   64   64:   70    9:   12
         292       1:   64   64:   70   13:   16
         293       1:   64   64:   70   17:   20
         294       1:   64   64:   70   21:   24
         295       1:   64   64:   70   25:   28
         296       1:   64   64:   70   29:   32
         297       1:   64   64:   70   33:   36
         298       1:   64   64:   70   37:   40
         299       1:   64   64:   70   41:   44
         300       1:   64   64:   70   45:   48
         301       1:   64   64:   70   49:   51
         302       1:   64   64:   70   52:   54
         303       1:   64   64:   70   55:   57
         304       1:   64   64:   70   58:   60
         305       1:   64   64:   70   61:   63
         306       1:   64   64:   70   64:   66
         307       1:   64   64:   70   67:   69
         308       1:   64   64:   70   70:   72
         309       1:   64   64:   70   73:   75
         310       1:   64   64:   70   76:   78
         311       1:   64   64:   70   79:   81
         312       1:   64   64:   70   82:   84
         313       1:   64   64:   70   85:   87
         314       1:   64   64:   70   88:   90
         315       1:   64   64:   70   91:   93
         316       1:   64   64:   70   94:   96
         317       1:   64   64:   70   97:   99
         318       1:   64   64:   70  100:  102
         319       1:   64   64:   70  103:  105
         320       1:   64   64:   70  106:  108
         321       1:   64   71:   77    1:    4
         322       1:   64   71:   77    5:    8
         323       1:   64   71:   77    9:   12
         324       1:   64   71:   77   13:   16
         325       1:   64   71:   77   17:   20
         326       1:   64   71:   77   21:   24
         327       1:   64   71:   77   25:   28
         328       1:   64   71:   77   29:   32
         329       1:   64   71:   77   33:   36
         330       1:   64   71:   77   37:   40
         331       1:   64   71:   77   41:   44
         332       1:   64   71:   77   45:   48
         333       1:   64   71:   77   49:   51
         334       1:   64   71:   77   52:   54
         335       1:   64   71:   77   55:   57
         336       1:   64   71:   77   58:   60
         337       1:   64   71:   77   61:   63
         338       1:   64   71:   77   64:   66
         339       1:   64   71:   77   67:   69
         340       1:   64   71:   77   70:   72
         341       1:   64   71:   77   73:   75
         342       1:   64   71:   77   76:   78
         343       1:   64   71:   77   79:   81
         344       1:   64   71:   77   82:   84
         345       1:   64   71:   77   85:   87
         346       1:   64   71:   77   88:   90
         347       1:   64   71:   77   91:   93
         348       1:   64   71:   77   94:   96
         349       1:   64   71:   77   97:   99
         350       1:   64   71:   77  100:  102
         351       1:   64   71:   77  103:  105
         352       1:   64   71:   77  106:  108
         353       1:   64   78:   84    1:    4
         354       1:   64   78:   84    5:    8
         355       1:   64   78:   84    9:   12
         356       1:   64   78:   84   13:   16
         357       1:   64   78:   84   17:   20
         358       1:   64   78:   84   21:   24
         359       1:   64   78:   84   25:   28
         360       1:   64   78:   84   29:   32
         361       1:   64   78:   84   33:   36
         362       1:   64   78:   84   37:   40
         363       1:   64   78:   84   41:   44
         364       1:   64   78:   84   45:   48
         365       1:   64   78:   84   49:   51
         366       1:   64   78:   84   52:   54
         367       1:   64   78:   84   55:   57
         368       1:   64   78:   84   58:   60
         369       1:   64   78:   84   61:   63
         370       1:   64   78:   84   64:   66
         371       1:   64   78:   84   67:   69
         372       1:   64   78:   84   70:   72
         373       1:   64   78:   84   73:   75
         374       1:   64   78:   84   76:   78
         375       1:   64   78:   84   79:   81
         376       1:   64   78:   84   82:   84
         377       1:   64   78:   84   85:   87
         378       1:   64   78:   84   88:   90
         379       1:   64   78:   84   91:   93
         380       1:   64   78:   84   94:   96
         381       1:   64   78:   84   97:   99
         382       1:   64   78:   84  100:  102
         383       1:   64   78:   84  103:  105
         384       1:   64   78:   84  106:  108
         385       1:   64   85:   90    1:    4
         386       1:   64   85:   90    5:    8
         387       1:   64   85:   90    9:   12
         388       1:   64   85:   90   13:   16
         389       1:   64   85:   90   17:   20
         390       1:   64   85:   90   21:   24
         391       1:   64   85:   90   25:   28
         392       1:   64   85:   90   29:   32
         393       1:   64   85:   90   33:   36
         394       1:   64   85:   90   37:   40
         395       1:   64   85:   90   41:   44
         396       1:   64   85:   90   45:   48
         397       1:   64   85:   90   49:   51
         398       1:   64   85:   90   52:   54
         399       1:   64   85:   90   55:   57
         400       1:   64   85:   90   58:   60
         401       1:   64   85:   90   61:   63
         402       1:   64   85:   90   64:   66
         403       1:   64   85:   90   67:   69
         404       1:   64   85:   90   70:   72
         405       1:   64   85:   90   73:   75
         406       1:   64   85:   90   76:   78
         407       1:   64   85:   90   79:   81
         408       1:   64   85:   90   82:   84
         409       1:   64   85:   90   85:   87
         410       1:   64   85:   90   88:   90
         411       1:   64   85:   90   91:   93
         412       1:   64   85:   90   94:   96
         413       1:   64   85:   90   97:   99
         414       1:   64   85:   90  100:  102
         415       1:   64   85:   90  103:  105
         416       1:   64   85:   90  106:  108
         417       1:   64   91:   96    1:    4
         418       1:   64   91:   96    5:    8
         419       1:   64   91:   96    9:   12
         420       1:   64   91:   96   13:   16
         421       1:   64   91:   96   17:   20
         422       1:   64   91:   96   21:   24
         423       1:   64   91:   96   25:   28
         424       1:   64   91:   96   29:   32
         425       1:   64   91:   96   33:   36
         426       1:   64   91:   96   37:   40
         427       1:   64   91:   96   41:   44
         428       1:   64   91:   96   45:   48
         429       1:   64   91:   96   49:   51
         430       1:   64   91:   96   52:   54
         431       1:   64   91:   96   55:   57
         432       1:   64   91:   96   58:   60
         433       1:   64   91:   96   61:   63
         434       1:   64   91:   96   64:   66
         435       1:   64   91:   96   67:   69
         436       1:   64   91:   96   70:   72
         437       1:   64   91:   96   73:   75
         438       1:   64   91:   96   76:   78
         439       1:   64   91:   96   79:   81
         440       1:   64   91:   96   82:   84
         441       1:   64   91:   96   85:   87
         442       1:   64   91:   96   88:   90
         443       1:   64   91:   96   91:   93
         444       1:   64   91:   96   94:   96
         445       1:   64   91:   96   97:   99
         446       1:   64   91:   96  100:  102
         447       1:   64   91:   96  103:  105
         448       1:   64   91:   96  106:  108
         449       1:   64   97:  102    1:    4
         450       1:   64   97:  102    5:    8
         451       1:   64   97:  102    9:   12
         452       1:   64   97:  102   13:   16
         453       1:   64   97:  102   17:   20
         454       1:   64   97:  102   21:   24
         455       1:   64   97:  102   25:   28
         456       1:   64   97:  102   29:   32
         457       1:   64   97:  102   33:   36
         458       1:   64   97:  102   37:   40
         459       1:   64   97:  102   41:   44
         460       1:   64   97:  102   45:   48
         461       1:   64   97:  102   49:   51
         462       1:   64   97:  102   52:   54
         463       1:   64   97:  102   55:   57
         464       1:   64   97:  102   58:   60
         465       1:   64   97:  102   61:   63
         466       1:   64   97:  102   64:   66
         467       1:   64   97:  102   67:   69
         468       1:   64   97:  102   70:   72
         469       1:   64   97:  102   73:   75
         470       1:   64   97:  102   76:   78
         471       1:   64   97:  102   79:   81
         472       1:   64   97:  102   82:   84
         473       1:   64   97:  102   85:   87
         474       1:   64   97:  102   88:   90
         475       1:   64   97:  102   91:   93
         476       1:   64   97:  102   94:   96
         477       1:   64   97:  102   97:   99
         478       1:   64   97:  102  100:  102
         479       1:   64   97:  102  103:  105
         480       1:   64   97:  102  106:  108
         481       1:   64  103:  108    1:    4
         482       1:   64  103:  108    5:    8
         483       1:   64  103:  108    9:   12
         484       1:   64  103:  108   13:   16
         485       1:   64  103:  108   17:   20
         486       1:   64  103:  108   21:   24
         487       1:   64  103:  108   25:   28
         488       1:   64  103:  108   29:   32
         489       1:   64  103:  108   33:   36
         490       1:   64  103:  108   37:   40
         491       1:   64  103:  108   41:   44
         492       1:   64  103:  108   45:   48
         493       1:   64  103:  108   49:   51
         494       1:   64  103:  108   52:   54
         495       1:   64  103:  108   55:   57
         496       1:   64  103:  108   58:   60
         497       1:   64  103:  108   61:   63
         498       1:   64  103:  108   64:   66
         499       1:   64  103:  108   67:   69
         500       1:   64  103:  108   70:   72
         501       1:   64  103:  108   73:   75
         502       1:   64  103:  108   76:   78
         503       1:   64  103:  108   79:   81
         504       1:   64  103:  108   82:   84
         505       1:   64  103:  108   85:   87
         506       1:   64  103:  108   88:   90
         507       1:   64  103:  108   91:   93
         508       1:   64  103:  108   94:   96
         509       1:   64  103:  108   97:   99
         510       1:   64  103:  108  100:  102
         511       1:   64  103:  108  103:  105
         512       1:   64  103:  108  106:  108

InitMesh: MESH =   128 x   216 x   216 =     5971968
InitMesh: (bp) =    64 x   108 x   108 =      746496
InitMesh: Mesh cutoff (required, used) =   100.000   110.139 Ry
ExtMesh (bp) on 0 =   104 x    47 x    44 =      215072
New grid distribution:   2
           1       7:   59    1:   14    1:   14
           2      60:   61   15:   27   82:   95
           3       3:    4    1:   13    1:   13
           4       1:    1   15:   27   41:   54
           5       3:    4    1:   13   14:   27
           6       5:    6    1:   13    1:   13
           7      64:   64    1:   13   14:   27
           8       7:   59    1:   14   28:   41
           9       5:    6    1:   13   28:   40
          10      64:   64   82:   94    1:   13
          11      62:   63    1:   13   41:   54
          12       7:   59    1:   14   42:   54
          13       3:    4   68:   81    1:   13
          14      64:   64   55:   67    1:   13
          15       7:   59    1:   14   55:   68
          16      62:   63    1:   13   55:   67
          17       3:    4    1:   13   55:   67
          18       2:    2   55:   67   28:   40
          19       5:    6    1:   13   68:   81
          20       7:   59    1:   14   69:   81
          21      60:   61    1:   14   69:   81
          22       1:    1   28:   41   41:   54
          23      64:   64    1:   13   68:   81
          24       7:   59    1:   14   82:   95
          25      60:   61    1:   14   82:   95
          26       3:    4    1:   13   82:   94
          27       2:    2    1:   13   28:   40
          28      62:   63    1:   13   95:  108
          29       7:   59    1:   14   96:  108
          30       3:    4    1:   13   95:  108
          31       1:    1    1:   14   41:   54
          32      64:   64    1:   13   95:  108
          33       5:    6   55:   67   14:   27
          34      62:   63    1:   13    1:   13
          35       2:    2    1:   13    1:   13
          36       5:    6   14:   27   14:   27
          37       7:   59    1:   14   15:   27
          38       5:    6    1:   13   14:   27
          39       1:    1    1:   13   28:   40
          40       3:    4    1:   13   28:   40
          41      60:   61    1:   14   28:   41
          42      62:   63    1:   13   28:   40
          43       1:    1    1:   13    1:   13
          44      60:   61    1:   14   42:   54
          45       3:    4   95:  108   14:   27
          46      60:   61   15:   27    1:   14
          47       5:    6    1:   13   55:   67
          48       1:    1   28:   40    1:   13
          49      60:   61   55:   68    1:   14
          50      64:   64   28:   40    1:   13
          51       1:    1    1:   14   68:   81
          52      62:   63    1:   13   68:   81
          53      62:   63   14:   27   14:   27
          54       3:    4    1:   13   68:   81
          55      64:   64    1:   13    1:   13
          56       5:    6    1:   13   82:   94
          57      60:   61    1:   14    1:   14
          58      62:   63    1:   13   82:   94
          59       2:    2   14:   27   82:   94
          60      60:   61    1:   14   96:  108
          61       5:    6   41:   54   41:   54
          62       5:    6    1:   13   95:  108
          63       2:    2    1:   14   68:   81
          64      64:   64    1:   13   28:   40
          65       7:   59   15:   27    1:   14
          66       3:    4   14:   27    1:   13
          67       2:    2    1:   14   41:   54
          68      64:   64   14:   27    1:   13
          69      60:   61    1:   14   15:   27
          70      60:   61   15:   27   15:   27
          71       2:    2   15:   27   14:   27
          72       7:   59   15:   27   28:   41
          73      60:   61   15:   27   28:   41
          74       1:    1   14:   27   28:   40
          75      64:   64   14:   27   41:   54
          76       7:   59   15:   27   42:   54
          77       1:    1   82:   95   41:   54
          78       2:    2   15:   27   41:   54
          79       7:   59   15:   27   55:   68
          80      60:   61   15:   27   55:   68
          81      62:   63   14:   27   55:   67
          82       1:    1    1:   14   95:  108
          83       1:    1   14:   27   55:   67
          84       7:   59   15:   27   69:   81
          85       3:    4   14:   27   28:   40
          86      60:   61   15:   27   69:   81
          87       1:    1   15:   27   68:   81
          88       7:   59   15:   27   82:   95
          89       5:    6   14:   27   82:   94
          90       1:    1   28:   41   14:   27
          91      64:   64   14:   27   82:   94
          92       5:    6   14:   27   95:  108
          93       7:   59   15:   27   96:  108
          94       5:    6    1:   13   41:   54
          95      60:   61   15:   27   96:  108
          96       2:    2   15:   27   95:  108
          97       5:    6   14:   27    1:   13
          98       5:    6   28:   40    1:   13
          99       2:    2   14:   27    1:   13
         100       3:    4   14:   27   14:   27
         101       7:   59   15:   27   15:   27
         102      64:   64   14:   27   14:   27
         103       1:    1   28:   40   28:   40
         104      62:   63   14:   27   28:   40
         105       5:    6   14:   27   28:   40
         106       2:    2   14:   27   28:   40
         107      62:   63   14:   27   41:   54
         108      60:   61   15:   27   42:   54
         109      60:   61    1:   14   55:   68
         110       2:    2   28:   41   41:   54
         111       5:    6   14:   27   55:   67
         112       2:    2   14:   27   55:   67
         113       3:    4   14:   27   55:   67
         114       2:    2    1:   14   14:   27
         115      64:   64   14:   27   55:   67
         116       3:    4   14:   27   68:   81
         117       5:    6   14:   27   68:   81
         118      64:   64   14:   27   68:   81
         119       2:    2   15:   27   68:   81
         120       3:    4   14:   27   82:   94
         121      62:   63   14:   27   82:   94
         122       1:    1    1:   14   14:   27
         123       1:    1   14:   27   82:   94
         124       3:    4   14:   27   95:  108
         125      62:   63   14:   27   95:  108
         126       3:    4    1:   13   41:   54
         127      64:   64   14:   27   95:  108
         128       1:    1   15:   27   95:  108
         129       7:   59   28:   41    1:   14
         130       3:    4   28:   40    1:   13
         131       2:    2   28:   40    1:   13
         132       5:    6   28:   40   14:   27
         133       3:    4   28:   40   14:   27
         134      64:   64   28:   40   14:   27
         135      62:   63   28:   40   28:   40
         136       7:   59   28:   41   28:   41
         137       3:    4   28:   40   28:   40
         138      64:   64   28:   40   28:   40
         139      62:   63   28:   40   41:   54
         140       7:   59   28:   41   42:   54
         141       5:    6   28:   40   41:   54
         142       2:    2   28:   40   28:   40
         143       7:   59   28:   41   55:   68
         144      62:   63   28:   40   55:   67
         145       5:    6   28:   40   55:   67
         146       2:    2   82:   94   55:   67
         147      62:   63   28:   40   68:   81
         148       7:   59   28:   41   69:   81
         149      60:   61   28:   41   69:   81
         150       2:    2   28:   41   68:   81
         151      64:   64   28:   40   68:   81
         152       7:   59   28:   41   82:   95
         153      60:   61   28:   41   82:   95
         154       5:    6   28:   40   82:   94
         155      64:   64   28:   40   82:   94
         156       3:    4   28:   40   95:  108
         157       7:   59   28:   41   96:  108
         158      60:   61   28:   41   96:  108
         159       2:    2   28:   41   95:  108
         160      64:   64   28:   40   95:  108
         161      60:   61   28:   41   15:   27
         162      62:   63   28:   40    1:   13
         163       1:    1   41:   54    1:   13
         164       5:    6   41:   54   14:   27
         165       7:   59   28:   41   15:   27
         166       2:    2   28:   41   14:   27
         167       1:    1   42:   54   14:   27
         168       5:    6   41:   54   28:   40
         169      60:   61   28:   41   28:   41
         170       5:    6   28:   40   28:   40
         171      64:   64    1:   13   82:   94
         172      60:   61   28:   41   42:   54
         173       3:    4   28:   40   41:   54
         174       1:    1   82:   94   82:   94
         175      60:   61   28:   41   55:   68
         176       3:    4   28:   40   55:   67
         177       3:    4   14:   27   41:   54
         178      64:   64   41:   54   55:   67
         179       1:    1   28:   41   68:   81
         180       5:    6   28:   40   68:   81
         181      62:   63   41:   54   14:   27
         182       3:    4   28:   40   68:   81
         183      64:   64   55:   67   55:   67
         184       3:    4   28:   40   82:   94
         185       3:    4   41:   54   68:   81
         186       5:    6   41:   54   82:   94
         187      62:   63   28:   40   82:   94
         188      64:   64   41:   54   82:   94
         189      60:   61   82:   95    1:   14
         190       5:    6   28:   40   95:  108
         191       1:    1   28:   41   95:  108
         192       2:    2   55:   67   82:   94
         193       7:   59   42:   54    1:   14
         194       5:    6   41:   54    1:   13
         195       2:    2   41:   54    1:   13
         196      64:   64   41:   54   14:   27
         197      62:   63   41:   54    1:   13
         198      60:   61   42:   54   15:   27
         199       2:    2   41:   54   28:   40
         200       7:   59   42:   54   28:   41
         201      60:   61   42:   54   28:   41
         202       1:    1   41:   54   28:   40
         203      60:   61   42:   54   42:   54
         204       7:   59   42:   54   42:   54
         205      64:   64   41:   54   41:   54
         206       2:    2   42:   54   41:   54
         207       7:   59   42:   54   55:   68
         208      62:   63   41:   54   55:   67
         209      60:   61   42:   54   55:   68
         210       2:    2    1:   14   95:  108
         211       2:    2   41:   54   55:   67
         212       7:   59   42:   54   69:   81
         213      62:   63   28:   40   14:   27
         214      60:   61   42:   54   69:   81
         215       1:    1   42:   54   68:   81
         216       7:   59   42:   54   82:   95
         217      60:   61   42:   54   82:   95
         218      64:   64   28:   40   41:   54
         219       2:    2   41:   54   82:   94
         220       3:    4   41:   54   95:  108
         221       7:   59   42:   54   96:  108
         222      62:   63    1:   13   14:   27
         223      60:   61   42:   54   96:  108
         224       1:    1   42:   54   95:  108
         225       3:    4   41:   54    1:   13
         226       3:    4   55:   67    1:   13
         227      64:   64   41:   54    1:   13
         228       3:    4   41:   54   14:   27
         229       7:   59   42:   54   15:   27
         230       2:    2   55:   68   14:   27
         231       2:    2   42:   54   14:   27
         232      62:   63   41:   54   28:   40
[...]
siesta: DUscf   =       162.487373
siesta: DUext   =         0.000000
siesta: Exc     =    -27387.742301
siesta: eta*DQ  =         0.000000
siesta: Emadel  =         0.000000
siesta: Emeta   =         0.000000
siesta: Emolmec =         0.000000
siesta: Ekinion =         0.000000
siesta: Eharris =    -91280.223482
siesta: Etot    =    -91280.223468
siesta: FreeEng =    -91280.223468

siesta: Final energy (eV):
siesta:  Band Struct. =  -26980.002322
siesta:       Kinetic =   64624.182446
siesta:       Hartree =  400948.661250
siesta:    Ext. field =       0.000000
siesta:   Exch.-corr. =  -27387.742301
siesta:  Ion-electron = -859771.547013
siesta:       Ion-ion =  330306.222150
siesta:       Ekinion =       0.000000
siesta:         Total =  -91280.223468

siesta: Stress tensor (static) (eV/Ang**3):
siesta:     0.000377   -0.000000   -0.000000
siesta:     0.000000   -0.007957   -0.000000
siesta:     0.000000   -0.000000   -0.007957

siesta: Cell volume =      27037.464472 Ang**3

siesta: Pressure (static):
siesta:                Solid            Molecule  Units
siesta:           0.00005641          0.00005622  Ry/Bohr**3
siesta:           0.00517919          0.00516173  eV/Ang**3
siesta:           8.29805940          8.27009825  kBar
(Free)E+ p_basis*V_orbitals  =      -91102.503218
(Free)Eharris+ p_basis*V_orbitals  =      -91102.503232

siesta: Electric dipole (a.u.)  =    0.000000    0.000000    0.000000
siesta: Electric dipole (Debye) =    0.000001    0.000000    0.000000
>> End of run:   2-DEC-2016  12:09:44
************************************************************************************************************************
***             WIDEN YOUR WINDOW TO 120 CHARACTERS.  Use 'enscript -r -fCourier9' to print this document            ***
************************************************************************************************************************

---------------------------------------------- PETSc Performance Summary: ----------------------------------------------

/global/homes/k/keceli/siesta-qetsc/Obj-gcc/siesta on a arch-cori-gcc named nid00271 with 512 processors, by keceli Fri Dec  2 12:09:49 2016
Using Petsc Development GIT revision: v3.7.4-1897-g257f32f  GIT Date: 2016-11-03 16:33:24 +0000

                         Max       Max/Min        Avg      Total 
Time (sec):           8.772e+01      1.00000   8.772e+01
Objects:              2.696e+03      1.11267   2.578e+03
Flops:                1.146e+10   11825.27799   3.903e+09  1.998e+12
Flops/sec:            1.307e+08   11825.26465   4.449e+07  2.278e+10
MPI Messages:         6.217e+04      5.33448   3.539e+04  1.812e+07
MPI Message Lengths:  1.828e+08      5.22635   2.916e+03  5.283e+10
MPI Reductions:       2.165e+04      1.45949

Flop counting convention: 1 flop = 1 real number operation of type (multiply/divide/add/subtract)
                            e.g., VecAXPY() for real vectors of length N --> 2N flops
                            and VecAXPY() for complex vectors of length N --> 8N flops

Summary of Stages:   ----- Time ------  ----- Flops -----  --- Messages ---  -- Message Lengths --  -- Reductions --
                        Avg     %Total     Avg     %Total   counts   %Total     Avg         %Total   counts   %Total 
 0:      Main Stage: 8.1236e-05   0.0%  0.0000e+00   0.0%  0.000e+00   0.0%  0.000e+00        0.0%  0.000e+00   0.0% 
 1:     siesta_init: 5.3236e+00   6.1%  0.0000e+00   0.0%  0.000e+00   0.0%  0.000e+00        0.0%  0.000e+00   0.0% 
 2:   siesta_forces: 4.1123e+00   4.7%  0.0000e+00   0.0%  0.000e+00   0.0%  0.000e+00        0.0%  0.000e+00   0.0% 
 3:    siesta_solve: 2.5882e-04   0.0%  0.0000e+00   0.0%  0.000e+00   0.0%  0.000e+00        0.0%  0.000e+00   0.0% 
 4:    siesta2qetsc: 8.4302e-02   0.1%  0.0000e+00   0.0%  1.116e+05   0.6%  2.727e-01        0.0%  5.700e+01   0.4% 
 5: qetsc_setup_eps: 3.7242e+00   4.2%  1.1823e+09   0.1%  1.863e+06  10.3%  9.635e+02       33.0%  2.780e+02   1.9% 
 6: qetsc_solve_eps: 5.0728e+01  57.8%  1.9970e+12  99.9%  9.602e+06  53.0%  1.919e+03       65.8%  3.945e+03  26.6% 
 7:   qetsc_eigvals: 1.8213e-04   0.0%  0.0000e+00   0.0%  0.000e+00   0.0%  0.000e+00        0.0%  0.000e+00   0.0% 
 8:   qetsc_density: 4.4255e+00   5.0%  0.0000e+00   0.0%  6.542e+06  36.1%  3.300e+01        1.1%  1.410e+04  95.0% 
10:     siesta_misc: 8.2953e+00   9.5%  0.0000e+00   0.0%  0.000e+00   0.0%  0.000e+00        0.0%  0.000e+00   0.0% 
11:     qetsc_clean: 1.0154e-01   0.1%  0.0000e+00   0.0%  0.000e+00   0.0%  0.000e+00        0.0%  0.000e+00   0.0% 
12:     siesta_move: 1.2959e-05   0.0%  0.0000e+00   0.0%  0.000e+00   0.0%  0.000e+00        0.0%  0.000e+00   0.0% 
13: siesta_analysis: 2.5375e-04   0.0%  0.0000e+00   0.0%  0.000e+00   0.0%  0.000e+00        0.0%  0.000e+00   0.0% 
14:      siesta_end: 1.0927e+01  12.5%  0.0000e+00   0.0%  0.000e+00   0.0%  0.000e+00        0.0%  0.000e+00   0.0% 

------------------------------------------------------------------------------------------------------------------------
See the 'Profiling' chapter of the users' manual for details on interpreting output.
Phase summary info:
   Count: number of times phase was executed
   Time and Flops: Max - maximum over all processors
                   Ratio - ratio of maximum to minimum over all processors
   Mess: number of messages sent
   Avg. len: average message length (bytes)
   Reduct: number of global reductions
   Global: entire computation
   Stage: stages of a computation. Set stages with PetscLogStagePush() and PetscLogStagePop().
      %T - percent time in this phase         %F - percent flops in this phase
      %M - percent messages in this phase     %L - percent message lengths in this phase
      %R - percent reductions in this phase
   Total Mflop/s: 10e-6 * (sum of flops over all processors)/(max time over all processors)
------------------------------------------------------------------------------------------------------------------------
Event                Count      Time (sec)     Flops                             --- Global ---  --- Stage ---   Total
                   Max Ratio  Max     Ratio   Max  Ratio  Mess   Avg len Reduct  %T %F %M %L %R  %T %F %M %L %R Mflop/s
------------------------------------------------------------------------------------------------------------------------

--- Event Stage 0: Main Stage


--- Event Stage 1: siesta_init


--- Event Stage 2: siesta_forces


--- Event Stage 3: siesta_solve


--- Event Stage 4: siesta2qetsc

MatConvert             2 1.0 3.2377e-04 1.9 0.00e+00 0.0 0.0e+00 0.0e+00 0.0e+00  0  0  0  0  0   0  0  0  0  0     0
MatAssemblyBegin      11 1.0 3.1089e-02 8.1 0.00e+00 0.0 0.0e+00 0.0e+00 4.4e+01  0  0  0  0  0  15  0  0  0 77     0
MatAssemblyEnd        11 1.0 3.1490e-03 1.1 0.00e+00 0.0 1.1e+05 4.4e+01 1.1e+01  0  0  1  0  0   4  0100100 19     0
VecSet                 3 1.0 1.2159e-0512.8 0.00e+00 0.0 0.0e+00 0.0e+00 0.0e+00  0  0  0  0  0   0  0  0  0  0     0

--- Event Stage 5: qetsc_setup_eps

MatCholFctrSym         1 1.0 1.0568e-01 1.1 0.00e+00 0.0 0.0e+00 0.0e+00 5.0e+00  0  0  0  0  0   3  0  0  0  2     0
MatCholFctrNum         4 1.0 2.3664e+00 1.0 0.00e+00 0.0 0.0e+00 0.0e+00 0.0e+00  3  0  0  0  0  62  0  0  0  0     0
MatCopy                3 1.0 1.1240e-01 1.0 0.00e+00 0.0 0.0e+00 0.0e+00 1.8e+01  0  0  0  0  0   3  0  0  0  6     0
MatConvert             1 1.0 4.2582e-03 4.4 0.00e+00 0.0 0.0e+00 0.0e+00 0.0e+00  0  0  0  0  0   0  0  0  0  0     0
MatScale              18 1.0 9.7764e-03 9.4 3.65e+06 3.8 0.0e+00 0.0e+00 0.0e+00  0  0  0  0  0   0100  0  0  0 120935
MatAssemblyBegin      29 1.0 7.2522e-011942.4 0.00e+00 0.0 0.0e+00 0.0e+00 7.2e+01  0  0  0  0  0   8  0  0  0 26     0
MatAssemblyEnd        29 1.0 1.4243e-02 1.5 0.00e+00 0.0 6.4e+04 1.6e+03 7.6e+01  0  0  0  0  1   0  0  3  1 27     0
MatGetRow           9152 1.0 4.4834e-02 4.2 0.00e+00 0.0 0.0e+00 0.0e+00 0.0e+00  0  0  0  0  0   1  0  0  0  0     0
MatGetSubMatrice      11 1.0 4.5464e-01 2.7 0.00e+00 0.0 1.8e+06 9.6e+03 2.2e+01  0  0 10 33  0  11  0 97 99  8     0
MatZeroEntries         3 1.0 2.8360e-03 3.2 0.00e+00 0.0 0.0e+00 0.0e+00 0.0e+00  0  0  0  0  0   0  0  0  0  0     0
MatAXPY               13 1.0 2.6999e-01 1.1 0.00e+00 0.0 3.6e+04 1.6e+03 6.4e+01  0  0  0  0  0   7  0  2  0 23     0
MatRedundantMat       11 1.0 7.8880e-01 1.1 0.00e+00 0.0 1.8e+06 9.5e+03 1.1e+02  1  0 10 33  1  21  0 98100 40     0
MatMPIConcateSeq      11 1.0 6.0010e-01 1.9 0.00e+00 0.0 2.7e+04 1.6e+03 8.9e+01  0  0  0  0  1  10  0  1  0 32     0
VecSet                 9 1.0 4.6015e-0548.2 0.00e+00 0.0 0.0e+00 0.0e+00 0.0e+00  0  0  0  0  0   0  0  0  0  0     0
EPSSetUp               4 1.0 3.0679e+00 1.0 0.00e+00 0.0 3.8e+05 8.5e+03 2.1e+02  3  0  2  6  1  82  0 21 19 74     0
STSetUp                8 1.0 2.8600e+00 1.0 0.00e+00 0.0 3.6e+04 1.6e+03 9.1e+01  3  0  0  0  1  75  0  2  0 33     0
KSPSetUp               4 1.0 4.2915e-06 0.0 0.00e+00 0.0 0.0e+00 0.0e+00 0.0e+00  0  0  0  0  0   0  0  0  0  0     0
PCSetUp                4 1.0 2.4918e+00 1.0 0.00e+00 0.0 0.0e+00 0.0e+00 5.0e+00  3  0  0  0  0  65  0  0  0  2     0
BVCreate               3 1.0 7.2312e-04 1.6 0.00e+00 0.0 0.0e+00 0.0e+00 6.0e+00  0  0  0  0  0   0  0  0  0  2     0

--- Event Stage 6: qetsc_solve_eps

MatMult             6499 0.0 9.1188e+00 0.0 1.05e+10 0.0 6.9e+06 4.1e+03 0.0e+00  4 88 38 54  0   6 89 72 82  0 193852
MatSolve            2505 0.0 3.1629e+01 0.0 0.00e+00 0.0 2.6e+06 2.3e+03 1.3e+03 19  0 14 12  9  32  0 27 18 33     0
MatCholFctrNum        14 1.4 7.9037e+00 1.4 0.00e+00 0.0 0.0e+00 0.0e+00 0.0e+00  7  0  0  0  0  11  0  0  0  0     0
MatCopy               14 1.4 5.2412e-01 1.5 0.00e+00 0.0 0.0e+00 0.0e+00 6.1e+01  0  0  0  0  0   1  0  0  0  2     0
MatAssemblyBegin      28 1.4 1.0309e+002705.8 0.00e+00 0.0 0.0e+00 0.0e+00 8.1e+01  0  0  0  0  1   1  0  0  0  2     0
MatAssemblyEnd        28 1.4 1.8834e-02 1.5 0.00e+00 0.0 9.2e+04 1.6e+03 1.2e+02  0  0  1  0  1   0  0  1  0  3     0
MatGetRow          34944 1.4 1.7193e-01 6.0 0.00e+00 0.0 0.0e+00 0.0e+00 0.0e+00  0  0  0  0  0   0  0  0  0  0     0
MatZeroEntries        14 1.4 1.1469e-02 3.3 0.00e+00 0.0 0.0e+00 0.0e+00 0.0e+00  0  0  0  0  0   0  0  0  0  0     0
MatAXPY               14 1.4 8.1308e-01 1.5 0.00e+00 0.0 9.2e+04 1.6e+03 1.6e+02  1  0  1  0  1   1  0  1  0  4     0
VecDot               336 0.0 2.3282e-01 0.0 5.59e+05 0.0 0.0e+00 0.0e+00 1.6e+02  0  0  0  0  1   0  0  0  0  4   585
VecCopy              177 0.0 2.3103e-04 0.0 0.00e+00 0.0 0.0e+00 0.0e+00 0.0e+00  0  0  0  0  0   0  0  0  0  0     0
VecSet             220162201.6 4.0797e-026581.4 0.00e+00 0.0 0.0e+00 0.0e+00 0.0e+00  0  0  0  0  0   0  0  0  0  0     0
VecScatterBegin    11509 0.0 1.5192e-01 0.0 0.00e+00 0.0 9.5e+06 3.7e+03 1.3e+03  0  0 52 65  9   0  0 99100 33     0
VecScatterEnd       9004 0.0 2.5070e+00 0.0 0.00e+00 0.0 0.0e+00 0.0e+00 0.0e+00  0  0  0  0  0   1  0  0  0  0     0
VecSetRandom          10 0.0 3.2949e-04 0.0 0.00e+00 0.0 0.0e+00 0.0e+00 0.0e+00  0  0  0  0  0   0  0  0  0  0     0
EPSSetUp              10 1.0 6.8956e+00 1.0 0.00e+00 0.0 9.2e+04 1.6e+03 3.5e+02  8  0  1  0  2  14  0  1  0  9     0
EPSSolve              10 1.0 5.0759e+01 1.0 1.15e+10 0.0 9.6e+06 3.6e+03 3.9e+03 58100 53 66 27 100100100100100 39343
STSetUp               16 1.0 4.0863e+00 1.0 0.00e+00 0.0 5.5e+04 1.6e+03 1.3e+02  5  0  0  0  1   8  0  1  0  3     0
STApply             2505 0.0 3.3217e+01 0.0 4.06e+09 0.0 5.2e+06 3.2e+03 1.3e+03 20 34 29 32  9  34 34 55 49 33 20278
STMatSolve          2505 0.0 3.1684e+01 0.0 0.00e+00 0.0 2.6e+06 2.3e+03 1.3e+03 19  0 14 12  9  32  0 27 18 33     0
KSPSetUp              14 1.4 9.5367e-06 0.0 0.00e+00 0.0 0.0e+00 0.0e+00 0.0e+00  0  0  0  0  0   0  0  0  0  0     0
KSPSolve            2505 0.0 3.1653e+01 0.0 0.00e+00 0.0 2.6e+06 2.3e+03 1.3e+03 19  0 14 12  9  32  0 27 18 33     0
PCSetUp               14 1.4 7.9038e+00 1.4 0.00e+00 0.0 0.0e+00 0.0e+00 0.0e+00  7  0  0  0  0  11  0  0  0  0     0
PCApply             2505 0.0 3.1632e+01 0.0 0.00e+00 0.0 2.6e+06 2.3e+03 1.3e+03 19  0 14 12  9  32  0 27 18 33     0
BVCreate              28 7.0 5.8382e-03 9.3 0.00e+00 0.0 0.0e+00 0.0e+00 1.2e+02  0  0  0  0  1   0  0  0  0  3     0
BVCopy               177 0.0 3.5095e-04 0.0 0.00e+00 0.0 0.0e+00 0.0e+00 0.0e+00  0  0  0  0  0   0  0  0  0  0     0
BVMultVec           3658 0.0 8.4595e-02 0.0 3.41e+08 0.0 0.0e+00 0.0e+00 0.0e+00  0  4  0  0  0   0  4  0  0  0 931726
BVMultInPlace         56 0.0 1.5086e-02 0.0 2.47e+08 0.0 0.0e+00 0.0e+00 0.0e+00  0  3  0  0  0   0  3  0  0  0 4595261
BVDotVec            3658 0.0 5.4990e+00 0.0 6.27e+09 0.0 3.9e+06 4.1e+03 1.9e+03  3 55 22 31 13   6 55 41 47 49 198353
BVOrthogonalizeV    2169 0.0 5.5897e+00 0.0 6.61e+09 0.0 3.9e+06 4.1e+03 1.9e+03  3 59 22 31 13   6 59 41 47 49 209236
BVScale             2505 0.0 4.1523e-03 0.0 2.08e+06 0.0 0.0e+00 0.0e+00 0.0e+00  0  0  0  0  0   0  0  0  0  0 131822
BVNormVec            336 0.0 4.6391e-01 0.0 5.45e+08 0.0 3.3e+05 4.1e+03 1.6e+02  0  4  2  3  1   0  4  3  4  4 181084
BVSetRandom           10 0.0 3.7098e-04 0.0 0.00e+00 0.0 0.0e+00 0.0e+00 0.0e+00  0  0  0  0  0   0  0  0  0  0     0
DSSolve               52 0.0 7.7472e-02 0.0 0.00e+00 0.0 0.0e+00 0.0e+00 0.0e+00  0  0  0  0  0   0  0  0  0  0     0
DSVectors           3313 0.0 1.1272e-03 0.0 0.00e+00 0.0 0.0e+00 0.0e+00 0.0e+00  0  0  0  0  0   0  0  0  0  0     0
DSOther               56 0.0 5.6977e-02 0.0 0.00e+00 0.0 0.0e+00 0.0e+00 0.0e+00  0  0  0  0  0   0  0  0  0  0     0

--- Event Stage 7: qetsc_eigvals


--- Event Stage 8: qetsc_density

VecCopy            10240 1.0 2.5153e-03 1.4 0.00e+00 0.0 0.0e+00 0.0e+00 0.0e+00  0  0  0  0  0   0  0  0  0  0     0
VecSet                 1 1.0 1.9073e-05 3.8 0.00e+00 0.0 0.0e+00 0.0e+00 0.0e+00  0  0  0  0  0   0  0  0  0  0     0
VecScatterBegin    20480 1.0 3.2218e+00 1.0 0.00e+00 0.0 5.2e+06 1.0e+02 1.0e+04  4  0 29  1 69  72  0 80 91 73     0
VecScatterEnd      10240 1.0 7.7311e-01 1.2 0.00e+00 0.0 0.0e+00 0.0e+00 0.0e+00  1  0  0  0  0  16  0  0  0  0     0
BVCopy             10240 1.0 7.5920e-03 1.3 0.00e+00 0.0 0.0e+00 0.0e+00 0.0e+00  0  0  0  0  0   0  0  0  0  0     0

--- Event Stage 9: Unknown


--- Event Stage 10: siesta_misc


--- Event Stage 11: qetsc_clean


--- Event Stage 12: siesta_move


--- Event Stage 13: siesta_analysis


--- Event Stage 14: siesta_end

------------------------------------------------------------------------------------------------------------------------

Memory usage is given in bytes:

Object Type          Creations   Destructions     Memory  Descendants' Mem.
Reports information only for process 0.

--- Event Stage 0: Main Stage


--- Event Stage 1: siesta_init


--- Event Stage 2: siesta_forces


--- Event Stage 3: siesta_solve


--- Event Stage 4: siesta2qetsc

              Matrix     9              0            0     0.
              Vector    19              1         1648     0.
      Vector Scatter     4              0            0     0.
           Index Set     4              4        21352     0.

--- Event Stage 5: qetsc_setup_eps

              Matrix    28             12     21121492     0.
              Vector    97             53       736640     0.
      Vector Scatter    16              7         7504     0.
           Index Set    59             52       411712     0.
          EPS Solver     2              0            0     0.
  Spectral Transform     2              0            0     0.
       Krylov Solver     2              0            0     0.
      Preconditioner     2              0            0     0.
       Basis Vectors     6              3         3168     0.
         PetscRandom     1              0            0     0.
              Region     2              0            0     0.
       Direct Solver     2              0            0     0.

--- Event Stage 6: qetsc_solve_eps

              Matrix    30             30     53342280     0.
              Vector   134            134      1545136     0.
      Vector Scatter    20             20        21440     0.
           Index Set    40             40       561280     0.
       Basis Vectors    10             10        10560     0.

--- Event Stage 7: qetsc_eigvals


--- Event Stage 8: qetsc_density

              Vector    11             10        83040     0.
      Vector Scatter   641            640       687120     0.
           Index Set  1281           1281      1070864     0.

--- Event Stage 9: Unknown


--- Event Stage 10: siesta_misc


--- Event Stage 11: qetsc_clean

              Matrix     0             25     45979350     0.
              Vector     0             63      1213176     0.
      Vector Scatter     0             14        14176     0.
           Index Set     0              7         5488     0.
          EPS Solver     0              2        62440     0.
  Spectral Transform     0              2         1632     0.
       Krylov Solver     0              2         2336     0.
      Preconditioner     0              2         1952     0.
       Basis Vectors     0              3         3168     0.
         PetscRandom     0              1          638     0.
              Region     0              2         1312     0.
       Direct Solver     0              2       109992     0.

--- Event Stage 12: siesta_move


--- Event Stage 13: siesta_analysis


--- Event Stage 14: siesta_end

              Viewer     1              0            0     0.
========================================================================================================================
Average time to get PetscTime(): 1.19209e-07
Average time for MPI_Barrier(): 7.89642e-05
Average time for zero size MPI_Send(): 1.77324e-06
#PETSc Option Table entries:
-eps_interval -2.3,0.
-eps_krylovschur_detect_zeros 0
-eps_krylovschur_partitions 64
-ioptbin 7
-ioptdensity 0
-ioptinertia 1
-ioptleft 2
-log_view
-mat_mumps_cntl_3 1e-12
-mat_mumps_icntl_13 1
-mat_mumps_icntl_23 3000
-mat_mumps_icntl_24 1
-mat_mumps_icntl_28 1
-mat_mumps_icntl_7 5
-mat_type mpisbaij
-roptbuffer 0.01
-roptdiff 0.1
-writeeigs 1
#End of PETSc Option Table entries
Compiled without FORTRAN kernels
Compiled with full precision matrices (default)
sizeof(short) 2 sizeof(int) 4 sizeof(long) 8 sizeof(void*) 8 sizeof(PetscScalar) 8 sizeof(PetscInt) 4
Configure options: --COPTFLAGS="-O3 -g" --CXXOPTFLAGS="-O3 -g" --FOPTFLAGS="-O3 -g" --download-mumps --download-metis --download-parmetis --download-ptscotch=1 --download-scalapack=1 --with-cc=cc --with-clib-autodetect=0 --with-cxx=CC --with-cxxlib-autodetect=0 --with-debugging=0 --with-fc=ftn --with-fortranlib-autodetect=0 --with-mpiexec=srun --with-ssl=0 --with-x=0
-----------------------------------------
Libraries compiled on Thu Nov 24 23:08:27 2016 on cori03 
Machine characteristics: Linux-3.12.60-52.57.1.11767.0.PTF.996988-default-x86_64-with-SuSE-12-x86_64
Using PETSc directory: /global/homes/k/keceli/petsc
Using PETSc arch: arch-cori-gcc
-----------------------------------------

Using C compiler: cc   -O3 -g  ${COPTFLAGS} ${CFLAGS}
Using Fortran compiler: ftn  -O3 -g   ${FOPTFLAGS} ${FFLAGS} 
-----------------------------------------

Using include paths: -I/global/homes/k/keceli/petsc/arch-cori-gcc/include -I/global/homes/k/keceli/petsc/include -I/global/homes/k/keceli/petsc/include -I/global/homes/k/keceli/petsc/arch-cori-gcc/include
-----------------------------------------

Using C linker: cc
Using Fortran linker: ftn
Using libraries: -Wl,-rpath,/global/homes/k/keceli/petsc/arch-cori-gcc/lib -L/global/homes/k/keceli/petsc/arch-cori-gcc/lib -lpetsc -Wl,-rpath,/global/homes/k/keceli/petsc/arch-cori-gcc/lib -L/global/homes/k/keceli/petsc/arch-cori-gcc/lib -lcmumps -ldmumps -lsmumps -lzmumps -lmumps_common -lpord -lscalapack -lparmetis -lmetis -lptesmumps -lptscotch -lptscotcherr -lscotch -lscotcherr -lrt -lm -lpthread -lz -ldl 
-----------------------------------------

