SystemName     Glu-Ala                                                                         
SystemLabel     GA                                                                              
XML.Write              T     # default value
XML.AbortOnErrors              F     # default value
XML.AbortOnWarnings              F     # default value
timer_report_threshold          0.000000000         # default value
UseTreeTimer              F     # default value
alloc_report_level         0     # default value
alloc_report_threshold          0.000000000         # default value
xc.functional     LDA     # default value
xc.authors     PZ     # default value
MM.Cutoff          30.00000000     Bohr     # default value
MM.UnitsEnergy     eV     # default value
MM.UnitsDistance     Ang     # default value
WriteIonPlotFiles              F     # default value
Atom.Debug.KB.Generation              F     # default value
KB.New.Reference.Orbitals              F     # default value
user-basis              F     # default value
user-basis-netcdf              F     # default value
ReparametrizePseudos              F     # default value
Restricted.Radial.Grid              T     # default value
Rmax.Radial.Grid          0.000000000         # default value
PAO.BasisSize     DZP                                                                             
PAO.BasisType     split                                                                           
PAO.SoftDefault              F     # default value
PAO.SoftInnerRadius         0.9000000000         # default value
PAO.SoftPotential          40.00000000         # default value
PAO.SplitNorm         0.1500000000         # default value
PAO.SplitNormH         -1.000000000         # default value
%block Chemical_species_label
Number_of_species              4
%block Chemical_species_label
  1  6  C
  2  1  H
  3  7  N
  4  8  O
%endblock Chemical_species_label
FilterCutoff          0.000000000     Ry     # default value
FilterTol          0.000000000     Ry     # default value
KB.Rmax          6.000000000     Bohr     # default value
PAO.EnergyShift         0.2000000000E-01 Ry     # default value
PAO.SplitTailNorm              F     # default value
PAO.FixSplitTable              F     # default value
PAO.NewSplitCode              F     # default value
PAO.Filter              F     # default value
PAO.Keep.Findp.Bug              F     # default value
PAO.Filter              F     # default value
PAO.Filter              F     # default value
PAO.Filter              F     # default value
PAO.OldStylePolorbs              T     # default value
PAO.SplitTailNorm              F     # default value
PAO.FixSplitTable              F     # default value
PAO.NewSplitCode              F     # default value
PAO.Filter              F     # default value
Vna.Filter              F     # default value
FilterCutoff          0.000000000     Ry     # default value
FilterTol          0.000000000     Ry     # default value
KB.Rmax          6.000000000     Bohr     # default value
PAO.EnergyShift         0.2000000000E-01 Ry     # default value
PAO.SplitTailNorm              F     # default value
PAO.FixSplitTable              F     # default value
PAO.NewSplitCode              F     # default value
PAO.Filter              F     # default value
PAO.Filter              F     # default value
PAO.OldStylePolorbs              T     # default value
PAO.SplitTailNorm              F     # default value
PAO.FixSplitTable              F     # default value
PAO.NewSplitCode              F     # default value
PAO.Filter              F     # default value
Vna.Filter              F     # default value
FilterCutoff          0.000000000     Ry     # default value
FilterTol          0.000000000     Ry     # default value
KB.Rmax          6.000000000     Bohr     # default value
PAO.EnergyShift         0.2000000000E-01 Ry     # default value
PAO.SplitTailNorm              F     # default value
PAO.FixSplitTable              F     # default value
PAO.NewSplitCode              F     # default value
PAO.Filter              F     # default value
PAO.Filter              F     # default value
PAO.Filter              F     # default value
PAO.Filter              F     # default value
PAO.OldStylePolorbs              T     # default value
PAO.SplitTailNorm              F     # default value
PAO.FixSplitTable              F     # default value
PAO.NewSplitCode              F     # default value
PAO.Filter              F     # default value
Vna.Filter              F     # default value
FilterCutoff          0.000000000     Ry     # default value
FilterTol          0.000000000     Ry     # default value
KB.Rmax          6.000000000     Bohr     # default value
PAO.EnergyShift         0.2000000000E-01 Ry     # default value
PAO.SplitTailNorm              F     # default value
PAO.FixSplitTable              F     # default value
PAO.NewSplitCode              F     # default value
PAO.Filter              F     # default value
PAO.Filter              F     # default value
PAO.Filter              F     # default value
PAO.Filter              F     # default value
PAO.OldStylePolorbs              T     # default value
PAO.SplitTailNorm              F     # default value
PAO.FixSplitTable              F     # default value
PAO.NewSplitCode              F     # default value
PAO.Filter              F     # default value
Vna.Filter              F     # default value
PAO.BasisType     split                                                                           
Atom-Setup-Only              F     # default value
UseStructFile              F     # default value
MD.UseStructFile              F     # default value
LatticeConstant          1.889726878           Bohr
# above item originally: LatticeConstant          1.000000000     Ang       
%block LatticeVectors
    30.000000000000000        0.0000000000000000        0.0000000000000000
    0.0000000000000000        30.000000000000000        0.0000000000000000
    0.0000000000000000        0.0000000000000000        127.85544166144302
AtomicCoordinatesFormat     NotScaledCartesianAng                                                           
NumberOfAtoms            834
ZM.UnitsLength     Bohr           # default value
ZM.UnitsAngle     rad            # default value
ZM.ForceTolLength         0.1555740000E-02 Ry/Bohr     # default value
ZM.ForceTolAngle         0.3565490000E-02 Ry/rad     # default value
ZM.MaxDisplLength         0.2000000000     Bohr     # default value
ZM.MaxDisplAngle         0.3000000000E-02 rad     # default value
ZM.CalcAllForces              F     # default value
%block AtomicCoordinatesAndAtomicSpecies
   0.48312304765961045      -0.51483138492033875        45.869152417313053                3
   0.77927435765429909       -1.5898917908161501        44.997202116733405                1
  -0.27761722256715604       -1.6793016562219800        43.896564765718388                1
    3.7140736634085236E-002  -1.6285114497406084        42.718688071136164                4
   0.25316879474771525       0.40117014463817391        45.505550785950525                2
   -4.9040662243474680       -2.2413475641635272        43.528958087119385                2
   0.52387376743521141      -0.75936796153552155        46.871514483310555                2
    1.7530057664385756       -1.3869010467923486        44.519607731192458                2
   0.85909453732528718       -2.9199396097721579        45.795669088007145                1
  -0.47633222436450673       -3.2418167793375909        46.517433207601613                1
    1.6669791851716607       -2.8399836381698025        46.541698029433803                2
    1.1100960266843725       -3.7464387596090742        45.110405863601883                2
   -1.2936931378188063       -3.3262901571695838        45.783716965708095                2
  -0.73100409617239315       -2.4369402183273068        47.224735867921090                2
  -0.36051082214820696       -4.5345301785018082        47.283376245093535                1
   -1.0135205861609968       -5.5265118483222242        47.002074479703055                4
   0.50403038451045035       -4.5403980399985908        48.295078966625205                4
   0.50252454484976994       -5.3960888503498561        48.707407557111075                2
   -1.5122513148382755       -1.8145646198192802        44.343535266818257                3
   -2.6055437590008284       -1.9025859993677434        43.447998073506334                1
   -2.5130120290310858      -0.79414332364350182        42.399070641428402                1
   -2.4983778062919271       -1.0578789484827724        41.207735320601898                4
   -4.3448270013857275       -1.2865611860652031        44.696445657490536                2
   -1.4001478057577064        4.2184153774782223        45.465322304833428                4
   -1.7778774245777846       -1.8574750815643633        45.340704181060843                2
   -2.4317010670639201       -2.8349858589590249        42.885178763038439                2
   -4.1285693035085504       -2.1125757560545573        44.160518758460448                1
   -4.2062541578791688       -2.8778290764515293        44.812502548691235                2
   -2.4655727519611697       0.42491269997131265        42.903106319135063                3
   -2.3880232421870016        1.5583397325015906        42.058661508423967                1
   -1.3027696001064912        1.3523291581594559        41.002157513530683                1
   -1.5636995877366964        1.4238827949018367        39.812266197634607                4
   -1.1632354209856786        5.0252831528487949        45.906979197450305                2
    3.2932817407987827       0.51507556731798498        40.827861403374513                2
   -2.4779463594578504       0.64825903152602815        43.911149860078240                2
   -3.3549448943821938        1.6660040845735216        41.538156560689664                2
   -2.1053971228272390        2.8335554613408913        42.899432160054147                1
  -0.76945651784969549        2.7259137230254979        43.681473686576645                1
   -2.9340188189051144        2.9820554956138130        43.611445901546496                2
   -2.0673305242613020        3.7122207801937197        42.234461130936005                2
    6.8977584825442584E-002   2.5786218961197949        42.982268772420070                2
  -0.79860871062068828        1.8662958814641486        44.369346064950108                2
  -0.53076583506374497        3.9769778756689842        44.487114121845096                1
   0.39997632601552535        4.7346390873286923        44.265193900536609                4
  -0.10577354272406048        1.1028062419856068        41.499489186122389                3
    1.0043182396167545       0.88007037055274817        40.649131636140361                1
   0.63479587634102153      -0.12670706111424623        39.559494783856422                1
   0.75424020475131037       0.15560854447050110        38.378359127715477                4
    2.4221421591849861      -0.25467304878373742        41.939614818940498                2
   -2.0587513819268892       -4.6446260383786306        42.405425572215449                4
   0.11429578916193606        1.0423981808033875        42.506794868760934                2
    1.1418140494238891        1.8340299836880121        40.113023144315690                2
    2.4863080629516041       0.60985587616040582        41.425068829655480                1
    2.7579133347504410        1.3023932901039208        42.105769167510935                2
   0.20373350174329907       -1.2867873547110711        40.018623285308784                3
  -0.16836558806298019       -2.3263931400919904        39.132892016399843                1
   -1.0932868392238930       -1.7824054346192675        38.044308272457883                1
  -0.81084357120610839       -1.9023185543364054        36.863252655384571                4
   -2.5450311611420631       -5.3534715467208702        42.809521995605536                2
   -5.2191725342502018       0.39282637834826528        37.727299714220514                2
   0.10260174255010046       -1.5258437450076352        41.018029549005917                2
   0.74571295261673409       -2.7063790992559840        38.645526046574865                2
  -0.85594724915268916       -3.4772578635309976        39.917551061980816                1
   -2.1340062914960880       -2.9928672809209038        40.652291725370802                1
  -0.14276127658632909       -3.8821259170177522        40.654488896005560                2
   -1.1229029877369658       -4.2895475663380358        39.221412894556487                2
   -2.8574999422867693       -2.5865045471720873        39.927736410816678                2
   -1.8822732016375259       -2.1965946277733752        41.370303846922980                2
   -2.7708859185979815       -4.1330335447125934        41.404353223620454                1
   -3.8735760555657865       -4.5730716064908146        41.121473329707420                4
   -2.1835112403944166       -1.1978501665255483        38.504857869745010                3
   -3.1366547139933436      -0.63504009326400457        37.621803319713450                1
   -2.4345635811843707       0.23925074176496253        36.582505661747547                1
   -2.5779458771743649        3.1647558407043697E-002   35.388607456931254                4
   -4.2107771448098115       0.84254358714276911        38.897037262313596                2
    1.3465105939668627        3.6826005153239532        39.682978399184833                4
   -2.4218801250384505       -1.0967410183719943        39.504708656948161                2
   -3.5267680906449508       -1.4923218257784647        37.048012468854417                2
   -4.5053571740467726        4.8213455838028274E-002   38.350642396301161                1
   -5.0017450536995405      -0.54646717230090447        38.996153407858664                2
   -1.6996402853684049        1.2072250240049041        37.097591651944711                3
  -0.99473495538836154        2.1075647458660671        36.263172893077623                1
  -0.22427275331846541        1.3363673404087719        35.191697708772082                1
  -0.40346941374787182        1.5612108118355557        34.005788903077487                4
    2.0024241365744162        4.2047721039202663        40.129451414122386                2
    3.0779737458759597       -1.9641848604327461        34.953824085805692                2
   -1.5782037810020038        1.3830366292198439        38.107805453060450                2
   -1.7309307906492881        2.7538550466268634        35.755453450688663                2
   -3.2945319165342823E-002   2.9829505450921632        37.112648240823411                1
    1.0078898840527533        2.1228851294803346        37.877411311308535                1
  -0.62664422713740731        3.5659469597781088        37.836019882562333                2
   0.49533737660309907        3.6936176720712748        36.455717571048019                2
    1.6104027334423909        1.5351108901288328        37.166739904561553                2
   0.49787864522131908        1.4224708971862081        38.557315373361199                2
    1.9196503489218673        3.0039248497180546        38.692060396081040                1
    3.1151365594110065        3.1007142650172139        38.466174150875212                4
   0.62029580080648739       0.44288382139754590        35.672105034033144                3
    1.4025917743089371      -0.35923977820943320        34.806291117947815                1
   0.52097096579356617      -0.96078623038702826        33.711602732628982                1
   0.77452829407755264      -0.77916013236530923        32.531869233405423                4
    1.9286176859706314       -2.1179564974459955        36.068601054723679                2
   -4.2519332601001594       -3.1854359003487951        36.546462493646942                4
   0.77141392978506307       0.25314579573913010        36.676050835748327                2
    2.0560587251227904       0.35487317825392628        34.277727037056586                2
    2.4709941409080773       -1.4359816962845042        35.561626446248063                1
    3.0914551022123753       -1.0310867054817763        36.245599168584597                2
  -0.49153152240423381       -1.6762427660897747        34.164770135391493                3
   -1.3930351818021203       -2.3063273418370933        33.273679578356891                1
   -1.8489734909432833       -1.3167660805004426        32.201623011144541                1
   -1.6902487157471837       -1.5586141602999508        31.016143497811363                4
   -5.0533341564332002       -3.4976268464870199        36.949596856107519                2
   -4.0054815950535669        2.8237534882101496        31.955389120002945                2
  -0.70623128714370509       -1.8300330722339222        35.162989061453153                2
  -0.85977138656683749       -3.1316016174203423        32.771676998894215                2
   -2.6097735650872220       -2.8730789805642791        34.055528832711850                1
   -3.3818287286553135       -1.7585401206878972        34.810278425278042                1
   -2.2503687684499329       -3.6225992513795511        34.779874950205873                2
   -3.2946201644066084       -3.3788608229114674        33.354916142893757                2
   -3.7488036697119957       -1.0021096081923175        34.098452315357889                2
   -2.7185156129332082       -1.2575915513315932        35.532793017391910                2
   -4.5509326313772416       -2.3448575877020392        35.559023480507243                1
   -5.7093525910506742       -2.0752005403623146        35.285293061108675                4
   -2.4108051041212670      -0.22267467990177647        32.680902974227266                3
   -2.8783182599541188       0.79538532046781640        31.814872789105085                1
   -1.8081638988419639        1.1302209294443635        30.775588995694090                1
   -2.0495583840054090        1.0587068244042370        29.581576883991318                4
   -2.9151126109761698        2.6026076961400979        33.117104565989223                2
    3.2743011873618810        1.7648089585350262        33.862975827538286                4
   -2.5447997752432006       -1.8687495561196865E-002   33.684486074198446                2
   -3.6894913761948622       0.32086523530764399        31.237650804869290                2
   -3.6117837867305802        2.1250984676445919        32.566723506531559                1
   -4.3554523416547415        1.9089695284870305        33.212460145485188                2
  -0.65072513011433486        1.5004670186861104        31.291004719676963                3
   0.43748530468081004        1.8520967111733571        30.456791071355656                1
   0.62742605906877635       0.79546298857036113        29.368735834023035                1
   0.60268112398927354        1.0997968197267767        28.187289968575257                4
    4.1127962138859289        1.8144424954944265        34.306469345243670                2
    1.4638329006015081       -3.7936273929460764        29.059327196489619                2
  -0.44629149624684050        1.5610359504747069        32.301314952163345                2
   0.19755885389080241        2.8098396749974626        29.964228174310158                2
    1.7302991945491057        2.0122101074216410        31.302925762703421                1
    2.1002520146236909       0.70158245350712312        32.046769197981590                1
    1.5770642073988705        2.8186691940687600        32.038977746780205                2
    2.5661412349843857        2.3057359392581906        30.646496827795989                2
    2.2580733099668504      -0.11400701473391006        31.323263569572255                2
    1.2853720935815733       0.40575368463351369        32.726046127925180                2
    3.3549865870896971       0.89532037725245439        32.858740895094542                1
    4.3921198843397349       0.29813662462631596        32.619353850764043                4
   0.81569273544224874      -0.42679097223707019        29.830310262832413                3
   0.99869092148792848       -1.5186226906803315        28.947452312661326                1
   -7.3483335219029833E-002  -1.4955519684101932        27.857788992541909                1
   0.23307137265462607       -1.4730375096001873        26.676870791674599                4
   0.43620145279774736       -3.2826635639386907        30.186395222162822                2
   -5.2514536938467717      -0.65139833458591534        30.728701456578236                4
   0.83650625107796550      -0.68359856809032560        30.830490765095945                2
    1.9400117275915347       -1.2953750155671420        28.417894032588976                2
    1.2679803208635230       -3.0229622607016586        29.679459082516995                1
    2.0116572933044155       -3.0530997590309257        30.359728688076540                2
   -1.3111497759014163       -1.5145379767239884        28.316288012758651                3
   -2.4149982944166624       -1.5066277096049823        27.430165178533073                1
   -2.2316738349028507      -0.41772719193102503        26.373233619486196                1
   -2.2440869633922462      -0.68939155407730790        25.183658017124738                4
   -6.0862910433411912      -0.45814406639188476        31.138485894701844                2
   -1.6501430630414955        4.2173911874684400        26.192789134341638                2
   -1.5707273820843701       -1.5335900957710931        29.315510186283888                2
   -2.4483238847333730       -2.4811930404777387        26.913864572231354                2
   -3.7345225149409567       -1.2920001236292049        28.221201712339258                1
   -3.7318321099947065        5.2537262364175996E-002   28.995879048307089                1
   -3.8622051325873636       -2.1234700697566025        28.933932111052467                2
   -4.5886250763438170       -1.3079453458728834        27.524105706917169                2
   -3.6063864007983195       0.89381114720764665        28.295824933645704                2
   -2.8980888092031192        7.6435172627267400E-002   29.715088400514471                2
   -5.0234671906898258       0.22446596377083505        29.753051820637094                1
   -5.8238533594077744        1.1092588594818253        29.495945657031264                4
   -2.0689837343282722       0.79446799048327910        26.869736198098909                3
   -1.8780364860351346        1.9103459658973510        26.019219598122064                1
  -0.81216888745595917        1.5922100502328451        24.970328828673157                1
   -1.0567259430727454        1.6883592818648587        23.778692282362854                4
  -0.87412630396629165        3.3980937345421220        27.339062416421765                2
    3.7421976548548912      -0.82294567997844004        28.001975076933803                4
   -2.0585943183241699        1.0236164430994630        27.876775138684714                2
   -2.8176778814985006        1.9901516480712886        25.447326725438735                2
   -1.7211906284212075        3.4099057270941264        26.792594110492409                1
   -2.4528042958311431        3.6457248007102296        27.445174565885154                2
   0.35260413320069617        1.2305857846605075        25.475236484448164                3
    1.4437963502785904       0.91296008585811506        24.631334083389557                1
   0.99387259793421601       -4.7881138440146742E-002   23.530984469271910                1
    1.1413871185479403       0.23388317027373340        22.352895310176315                4
    4.4619431295419787       -1.2656953585543280        28.435752751340438                2
  -0.93093986918369964       -4.2926482540828621        23.167515439285967                2
   0.55971477951993709        1.1491751643031343        26.483535032241594                2
    1.7892491922027998        1.8442547956842339        24.150910318524556                2
    2.6018095093246312       0.29665220745660248        25.463270434069901                1
    2.1636150287422216       -1.0024923854771537        26.189990403978843                1
    2.9379858690286902        1.0360948241326409        26.208817089135756                2
    3.4532106614838418        7.2195688548118753E-002   24.799626232223023                2
    1.8260711837221213       -1.7522370452052918        25.456845645307602                2
    1.3282436806365499      -0.79219203760772849        26.876204342500458                2
    3.3092939007363835       -1.5689841329928917        26.988550539403708                1
    3.8212749384614915       -2.6465211244750626        26.730927722536169                4
   0.45529142546117729       -1.1668309321065329        23.978512922644320                3
   -1.9447841291054146E-002  -2.1556941469916331        23.083082765108514                1
  -0.89288499788271425       -1.5106839151325580        22.006734596229244                1
  -0.63329015713423686       -1.6491358682443353        20.822466019093401                4
   -1.4801811416061090       -3.3045171853495408        24.311772306932163                2
   -4.6576215682564559        2.0867862559877297        24.948006038299525                4
   0.33077280521486685       -1.4046031332258337        24.975861344675302                2
   0.87927175047598594       -2.4998179830546432        22.544345131702197                2
  -0.65069632628461260       -3.5566821064916958        23.797328047234107                1
   -5.3248772814973755E-002  -4.0145794353140465        24.468235567168136                2
   -1.9193889554719319      -0.82896178629555650        22.479962452044386                3
   -2.8265849927371347      -0.18140292846927264        21.607368228932316                1
   -2.0609885978317766       0.62528545940779323        20.558782266784597                1
   -2.2311161038682541       0.42652377528360996        19.366894624746841                4
   -5.2323233815620176        2.7145805414150717        25.369688454145788                2
    1.0538149218008250        4.1084739628422859        20.415752482432612                2
   -2.1391992749651658      -0.71170572605133708        23.482021787022500                2
   -3.4108407869574604      -0.95618610613802169        21.082191411607788                2
   -3.7859817518232624       0.73407412788140192        22.416322853982905                1
   -3.0152415840911928        1.8266912265346007        23.203762034587427                1
   -4.3608887330412660       0.11249179216828575        23.122543149176639                2
   -4.5005315064590885        1.2171475997404679        21.729484483681386                2
   -2.4365386454724445        2.4574205649065313        22.510337526144536                2
   -2.3128092676555312        1.3614129226799068        23.913033515911579                2
   -3.9761524687327894        2.6916918366220619        23.978110460643830                1
   -4.1320293846634488        3.8783682623958291        23.739193079556699                4
   -1.2352297725863894        1.5221638211109214        21.064876728082350                3
  -0.44708783605923275        2.3436515801379643        20.222847544861661                1
   0.24366703892276620        1.4911722380322860        19.158144431188408                1
    9.1921387355834661E-002   1.7269514052854373        17.970528361873626                4
    1.2309121191224666        2.9763910329132792        21.544653534084624                2
    2.6281951421634169       -3.1304645523595203        22.111212305865749                4
   -1.0917778167574608        1.6898114436919225        22.073866417430946                2
   -1.1769330142241183        2.9522732897277462        19.663149421767212                2
   0.53862040850270754        3.4760611124888303        21.008605866701700                1
    7.4111437691243065E-002   4.0765479922851009        21.672215214633859                2
   0.99798561781214712       0.52372996107978598        19.645442040872911                3
    1.7107762116685583      -0.34576285584363720        18.785401568982021                1
   0.78912948450778631      -0.86363890948504518        17.681414151527285                1
    1.0654695183938403      -0.69848009001638711        16.504382089741163                4
    2.9700778660256271       -3.9103905625231121        22.531991963741003                2
   -3.2106134265655064       -3.2536350997651837        17.300578899049817                2
    1.1265014262807633       0.32407947032705131        20.650335985665439                2
    2.5226042436383258       0.23058556301937672        18.309783821221703                2
    2.3160880020509937       -1.5236076382026362        19.597329690809197                1
    1.2197937809645119       -2.3533063297590617        20.316810098147190                1
    3.0166276430065282       -1.1178349439212656        20.345809800291025                2
    2.8855164587501831       -2.1827345106280562        18.921318392369027                2
   0.51232339377582914       -2.7669552825163621        19.580648204975908                2
   0.65559337463234968       -1.7152722015369180        21.015058940457219                2
    1.8431586206849331       -3.4826788153274224        21.095992576565123                1
    1.6498901519473392       -4.6561739642509679        20.821882195400033                4
  -0.28843660683534811       -1.4839366204329909        18.124677175533147                3
   -1.2455142145919136       -2.0137620660120210        17.225616306070766                1
   -1.6015787245049440      -0.97060188338342901        16.166139574442123                1
   -1.4722058263455340       -1.2146482519618349        14.977546073158999                4
   -3.0948762053532719       -2.1455474868124740        18.460811418269063                2
   -2.6372143742355014        4.0858391330117731        19.187062249847600                4
  -0.52164641431362568       -1.6233359242844381        19.121133597976009                2
  -0.70470532553704590       -2.8000517575445611        16.672777611058727                2
   -2.5585663281601403       -2.8171927079350976        17.933981736254896                1
   -2.3248061473611386       -3.5435000610179221        18.593196610460051                2
   -2.0556662358026854       0.16695027838913046        16.658257089808369                3
   -2.4371263271748278        1.2284036450311793        15.802942674185539                1
   -1.3532581146876850        1.4716605579180937        14.752955871320950                1
   -1.6116058656363403        1.4226021553567074        13.561362216292528                4
   -2.7506920310988603        4.9227805958537250        19.621660577230962                2
    3.1894230542252657        2.5659245392125198        14.605664410377125                2
   -2.1652022012044845       0.37362423498980013        17.663978829899328                2
   -3.3607864709636446       0.93144929017207567        15.277467132060217                2
   -2.7015148189150824        2.5150344585068902        16.632175962053488                1
   -1.4424776995409982        2.9633751411707285        17.420674000118098                1
   -3.5247859369898942        2.3205577893810245        17.339306242746300                2
   -3.0173168043974981        3.3288976024960322        15.958689387461751                2
  -0.61082293409965072        3.1630247995994822        16.726379752812402                2
   -1.1264138642025143        2.1707069663312364        18.116908090874396                2
   -1.7369880597910767        4.2098725178539045        18.214839729574660                1
   -1.1910161513945656        5.2778545408155422        17.989209185775696                4
  -0.16161770509797346        1.7319029148879665        15.257601378054044                3
   0.95013858436115828        1.9714538560302750        14.414015995527807                1
    1.0283148274728355       0.89322892809781573        13.332916774417834                1
    1.0323582497823580        1.1909634024468254        12.149536733244517                4
    2.6959611991032797        1.5176237868347393        15.721439340253163                2
   0.37268542448581776       -4.3071782138029198        16.212504664593016                4
    5.6268855929570982E-002   1.7732523777340541        16.266343193817896                2
   0.69376738154074924        2.8953772098148458        13.869042785855367                2
    2.4085831161241789        2.3302455440538541        15.198615451640535                1
    2.3712676047026702        3.0784733486187008        15.873517777692115                2
    1.1003150086468421      -0.33859863691815995        13.801763084895175                3
    1.1878498961705857       -1.4463705336203665        12.924872629666783                1
   0.13032864766809427       -1.3315916949385955        11.827197293812148                1
   0.44626021528103155       -1.3356187557612227        10.648546898147755                4
   0.21192993945401595       -5.1492007599068916        16.621625189005734                2
   -4.5203766965943002       -1.0157773469226892        11.471864026250895                2
    1.0969061634650472      -0.59071268262513243        14.803069909106547                2
    2.1812433354574794       -1.4272759585444654        12.445019146748816                2
    1.0190560357728755       -2.7712302831765938        13.718095955717889                1
  -0.35132278424284769       -2.8404176096671407        14.442794511689517                1
    1.8293724817629231       -2.8471546517674069        14.461905401164749                2
    1.1092269062051516       -3.6271815348603580        13.028962480308806                2
   -1.1717648554055589       -2.7672086842431720        13.711310130517209                2
  -0.44909655819625982       -2.0051129280741802        15.153897507950070                2
  -0.47783725784938857       -4.1352065753933607        15.203522381187282                1
   -1.3057222177742820       -4.9861497619172326        14.920534302322517                4
   -1.1067395453168820       -1.2351701637885348        12.277491877317351                3
   -2.1992754843388473       -1.1130856529307831        11.385032584295260                1
   -1.9032680931216508       -3.7115327873828319E-002   10.339985440459733                1
   -1.9410827171038347      -0.29384319273671361        9.1476300634413814                4
   -3.7894857783545519      -0.18759082607057442        12.641179344090189                2
   0.13581451796971589        4.6652576179583907        13.421534004477037                4
   -1.3733577077929562       -1.2318325935795595        13.275313503785100                2
   -2.2044423963057129       -2.0591367674680372        10.818184325896326                2
   -3.7330021869764791       -1.0371968141767947        12.101490202183280                1
   -3.9510892207818058       -1.7771392696356356        12.750838838274479                2
   -1.6271906564334848        1.1493320983265005        10.848437789075355                3
   -1.3407409491603914        2.2517781443029050        10.008011062467650                1
  -0.31575301145977086        1.8506953578048935        8.9473750079952303                1
  -0.56146281937584597        1.9749183399962074        7.7585768476121482                4
   0.52067525410649718        5.4115974289506870        13.865474313905699                2
    4.0417717326669509       0.16835046909203194        8.7556606043531460                2
   -1.5951499321105005        1.3667438232752795        11.857345121630919                2
   -2.2716145743238529        2.5408216074878478        9.4909204842830803                2
  -0.82232966368728744        3.4479144382835707        10.852674115845510                1
   0.47165229482470084        3.0886756898390697        11.630151579153484                1
   -1.6068062881376570        3.7459169109957560        11.567810952348484                2
  -0.62195169836776221        4.3067359105508434        10.190886667188732                2
    1.2660240672185528        2.7899679557784602        10.927797456180818                2
   0.28365185216814970        2.2467976134972552        12.314883812434442                2
   0.94230011369124855        4.2694649843263983        12.439730815829757                1
    1.9979391675978238        4.8403728968466577        12.217761424650282                4
   0.81450364307575218        1.3793193179553345        9.4400458536903500                3
    1.8612425954807075       0.95627698255654892        8.5854139176759539                1
    1.3071582145105842        4.1161366417527268E-002   7.4931639678271864                1
    1.4745822596674136       0.30115017363189917        6.3127295141117452                4
    3.0445084486380951      -0.42938668255061363        9.8672221196206369                2
   -2.1781111492592080       -3.9045410168482464        10.330493861489098                4
    1.0217338895749191        1.2744748074352021        10.446429297094745                2
    2.1736936867680412        1.8698915769323841        8.0524607830362651                2
    3.2682301362309154       0.41001978063023514        9.3557238311382704                1
    3.6663210565688953        1.0365367826914951        10.038168341796833                2
   0.66755383756509057       -1.0196245201215506        7.9492775293117033                3
   0.10526980416238674       -1.9673744963417430        7.0608156835726295                1
  -0.70397140825750038       -1.2551724718252382        5.9771582428154533                1
  -0.45175786674958707       -1.4208168493646429        4.7947894362615928                4
   -2.7875823985372983       -4.5115037488116281        10.733439189246225                2
   -4.3502410520689834        1.6555224336313095        5.6811287040870946                2
   0.52579236541524899       -1.2397739679550188        8.9480900120171842                2
   0.93086874871824798       -2.5097264648630588        6.5691906029040936                2
  -0.78382399297855043       -2.9724605242451885        7.8432875777192494                1
   -1.9468297326656836       -2.2604479759919940        8.5838068369710285                1
  -0.15734506253529701       -3.5068561881615303        8.5764827550229050                2
   -1.1998099733690670       -3.7174151880133928        7.1449420400583987                2
   -2.5831249426026659       -1.7227066834703204        7.8630316660970223                2
   -1.5487451515327166       -1.5284695804064534        9.3040133260735285                2
   -2.7841917512557939       -3.2643803065509127        9.3335641268341618                1
   -3.9504413729757619       -3.4889350649651800        9.0524644135871668                4
   -1.6643527100930369      -0.47877251889549943        6.4432815184825802                3
   -2.4973088322456536       0.25632714695600545        5.5653090954810089                1
   -1.6463548475085883       0.98810314810979127        4.5271196866774766                1
   -1.8288840755094116       0.81611522797425429        3.3329029047653753                4
   -3.2727206359503453        1.9034606440107087        6.8494048525476661                2
    2.7199397183132139        3.6492473656247748        7.6287150811582203                4
   -1.8772190577702952      -0.33907990488007905        7.4442401948743040                2
   -3.0424113599109317      -0.51028258648665337        4.9895234511759137                2
   -3.7121268681889763        1.1806820229272577        6.3009540073843420                1
   -4.3095802648561659       0.68672693769084869        6.9457704582101103                2
  -0.74195215635559741        1.7991278290332098        5.0435446832369246                3
   0.11712595019887262        2.5550910076820927        4.2103206558686876                1
   0.72701463165600066        1.6578359093735409        3.1335729598593338                1
   0.59030791417451989        1.9173133915501301        1.9490779474071021                4
    3.4630838476594019        4.0374473873542449        8.0751021813778685                2
    3.3521756801382083       -2.2016623822178407        2.8730675885730532                2
  -0.58736574399188468        1.9447797019631010        6.0540282527488340                2
  -0.48620575137039401        3.3299673756633847        3.7073177079201791                2
    1.2278275941236161        3.2312571134646819        5.0600789882012753                1
    2.0909786919588327        2.1882465064034604        5.8183744786888552                1
   0.75551187852468460        3.9120260489341052        5.7874724603863967                2
    1.8783054269689847        3.8332219849886138        4.4041787214957830                2
    2.5710874981035330        1.5010796559260333        5.1036357901324632                2
    1.4604230730572976        1.5928335985005062        6.4972295260749586                2
    3.1535133563813198        2.8794834021691975        6.6334836166759921                1
    4.3454410444241907        2.7516572567777620        6.4042480825611197                4
    1.3904453408086197       0.61996400805506191        3.6080006695368234                3
    2.0066502260395720      -0.31076294153796280        2.7367590954983814                1
    1.0254044880973296      -0.73190296133392663        1.6425681008741657                1
    1.3057156342783589      -0.59594145903132956       0.46274157991809595                4
    2.1969800421272851       -2.1422388564076895        3.9908263478520674                2
   -4.0729938694321515       -2.0354980364013833        4.4838855467753680                4
    1.5057168838027502       0.40100458273803502        4.6107536912083571                2
    2.7810442633940218       0.27059745879196023        2.2088478207707696                2
    2.8562814852548342       -1.5717371564148310        3.4847290082174402                1
    3.5431961397087592       -1.2931120661264575        4.1682835116282160                2
  -0.10210099946842194       -1.2470289316958256        2.0961942104877931                3
   -1.1077435839890506       -1.6933469692200964        1.2055534278751898                1
   -1.3728187082363907      -0.63134931856503840       0.13863605457077130                1
   -1.2649797235913429      -0.89358427196947177       -1.0482292735612444                4
   -4.9177310334136708       -2.1938130530918132        4.8883350207643890                2
   -2.7163514361085013        3.8407643860619820       -8.5371669570309616E-002           2
  -0.33945595294651465       -1.3621496799302808        3.0944919167226330                2
  -0.73964475144120012       -2.6017327422514058       0.69880592340815839                2
   -2.4072506179882636       -2.0255565202596477        1.9890495999504587                1
   -2.9551508623286935      -0.78938771932416296        2.7503675433218993                1
   -2.1928656203097057       -2.8322020228461828        2.7094604887435674                2
   -3.1763438601878531       -2.3911551309792491        1.2886771867647719                2
   -3.1756485451968675        2.5409910459769085E-002   2.0425259427358236                2
   -2.2080637323093661      -0.42459789526954739        3.4726903934897866                2
   -4.2116081821353877       -1.1495956329958568        3.5005385433381808                1
   -5.2996752509862750      -0.66661907216819993        3.2314219088711242                4
   -1.7186918320068891       0.54654234677658597       0.62375773706271542                3
   -1.9893157900770599        1.6378232561807993      -0.23699289210373642                1
  -0.87783509829777384        1.7707684122630205       -1.2783344801547989                1
   -1.1311570855966895        1.7508151389309243       -2.4718504308418465                4
   -1.6839594195932219        3.4143969102602121        1.0721127853038748                2
    4.2407948655707681        1.4292207555997347        1.7956016376688366                4
   -1.8097560373971389       0.76773123986787284        1.6285100278075584                2
   -2.8763558714806399        1.3260627198415444      -0.81346632472149705                2
   -2.4590202923990705        3.0781441331966173       0.52211295373564703                1
   -3.2284868948694805        3.0023454762502633        1.1693425546515455                2
   0.32967099690575891        1.9155226092762381      -0.76513345629697771                3
    1.4625152930644476        2.0607089418305002       -1.6014004790945626                1
    1.4486617970816575       0.99184806863494113       -2.6939941950405517                1
    1.4785705459610095        1.3004674945834642       -3.8742082610874942                4
    5.0747905001125257        1.3190686882204621        2.2366704547118879                2
    1.4101417109962222       -3.6713267151624183       -3.0232019973908448                2
   0.54420466045125537        1.9324290691494452       0.24475661153614142                2
    1.4050332334355251        3.0485300194321296       -2.0896215620325873                2
    2.7644268440223461        1.9722889597181796      -0.75869282627373447                1
    2.8841403415823414       0.61240859641547596       -2.0921134133818797E-002           1
    2.7666590236434838        2.7900305699287862       -1.9150116018088470E-002           2
    3.6389049823541821        2.1068999476035124       -1.4166108636290842                2
    2.8847329593283400      -0.21521413178551355      -0.74796611714383721                2
    2.0298758397900154       0.47151264707256946       0.65977085697522797                2
    4.1548629423105137       0.56429441768428668       0.78786830950366538                1
    5.0612474275889339      -0.21551184704851711       0.54302259640932449                4
    1.4057903014708859      -0.24599658354898435       -2.2375922978476881                3
    1.3790078345077859       -1.3490074839483550       -3.1251015368853388                1
   0.32756438686319445       -1.1209237960727323       -4.2113338113675338                1
   0.63013549816731829       -1.1511770560152004       -5.3931061874456088                4
   0.49903089625381197       -2.9817791578021628       -1.8910385776042489                2
   -4.5939524765671216       0.66566916049790792       -1.3212009181346547                4
    1.3804939064883912      -0.50642174033068932       -1.2384510603695797                2
    2.3442355436342894       -1.3037237202252963       -3.6567416469899068                2
    1.3635347923845162       -2.8802706833624399       -2.3995797693529641                1
    2.0900078897124121       -3.0520361033350603       -1.7217420877327430                2
  -0.89068019128697518      -0.90976459018749845       -3.7490655175455116                3
   -1.9755981525050410      -0.69150972435334501       -4.6317181286388669                1
   -1.5940830303997719       0.34829667262534686       -5.6851246903936428                1
   -1.6599471003829054        8.8837760652216990E-002  -6.8756660467421531                4
   -5.3768639853750591        1.0100865508373253      -0.90810271000785048                2
  -0.15524651297796843        4.7932519030426901       -5.8499977040662694                2
   -1.1468840924994361      -0.88413233354512544       -2.7491200096005857                2
   -2.1920546356846629       -1.6403842441807763       -5.1515625587733869                2
   -3.2297216331430549      -0.23696104647785252       -3.8357861186753275                1
   -2.9734662345750165        1.0799723868252884       -3.0560858581092205                1
   -3.5091793768092989       -1.0328446870159442       -3.1257844692254322                2
   -4.0733358776508357       -8.9712778445579816E-002  -4.5302796259480056                2
   -2.6943400389352457        1.8858512726865266       -3.7533676710839363                2
   -2.1483097305869894       0.94425421230964246       -2.3393861895184864                2
   -4.2082698782039225        1.4874998062429745       -2.2942639419518627                1
   -4.8294026366146516        2.5076090867406147       -2.5455630086128265                4
   -1.2060965981713565        1.5064550335629261       -5.1845891980069601                3
  -0.81155634278478539        2.5704537421724289       -6.0315057994512600                1
   0.17340873102180931        2.0628278364050243       -7.0848888209340526                1
   -5.1615931468474319E-002   2.2081525638542590       -8.2753908632311219                4
   0.45630325085826007        3.8382504828815494       -4.7092208043548354                2
    4.2020273014857290       -1.1753580114900128       -4.0764846604442182                4
   -1.1506114248283161        1.7253078877209944       -4.1767354362300404                2
   -1.7209702973026315        2.8272422593049895       -6.6001729021827158                2
  -0.37484516250234456        4.0108043823398827       -5.2530062095782615                1
   -1.0478176884974499        4.3766682630671081       -4.5972760480709125                2
    1.2510370767463213        1.4873362506784047       -6.5849622043986242                3
    2.2614560119826361       0.97459510691949425       -7.4334360680740366                1
    1.6369702011091598       0.11970426956394875       -8.5359766079002455                1
    1.8318716702997935       0.37388214300337996       -9.7134538907243133                4
    4.8271430309726853       -1.7469003651495336       -3.6466084447408553                2
   -1.0495567046962941       -3.6879470783840547       -8.9093732229073357                2
    1.4416071126889873        1.3642832982779074       -5.5776243750228049                2
    2.7740708832732048        1.8267666062093797       -7.9114363012450752                2
    3.2855180860561268       0.14879873505236396       -6.6074183974385274                1
    2.6134941341164954       -1.0483957655768568       -5.8842157084085462                1
    3.7559739090123916       0.80902271529377701       -5.8601531455561870                2
    4.0782603948838485      -0.22828782171364170       -7.2745418015316563                2
    2.1397949062240595       -1.7185362685767660       -6.6191135830690744                2
    1.8339000095209692      -0.68831280888359836       -5.1946257152317745                2
    3.6346908002894134       -1.8228056484381947       -5.0913487785545124                1
    3.9352165457197419       -2.9760461595333338       -5.3545989782105750                4
   0.89942475662951193      -0.88049572411482635       -8.0909746650523218                3
   0.24579647752049061       -1.7591395301297914       -8.9886261166839692                1
  -0.49392435024070047      -0.95739599600791658       -10.059829388816583                1
  -0.26763427064206335       -1.1369588144546638       -11.245409619090221                4
   -1.4013425429042314       -2.6193337914931716       -7.7597188705092863                2
   -3.5114341284158410        3.2688422573135050       -7.0934080194984155                4
   0.73492589343109294       -1.0949955308209485       -7.0941425132493503                2
    1.0629034058451785       -2.2631689143164904       -9.5314400834405397                2
  -0.63496705915959017       -3.0201705644296353       -8.2776798742923745                1
  -0.13226462776887327       -3.5847022874311585       -7.6103533854471452                2
   -1.3734864416326817       -9.7535216394575686E-002  -9.5808617439184136                3
   -2.1454126288112230       0.71216460123315473       -10.448199030136193                1
   -1.2447588269213365        1.3656822968283178       -11.496127397496316                1
   -1.4518995485754389        1.2073791060308845       -12.688217388450482                4
   -3.9574086629887022        3.9913453510421180       -6.6675912862896398                2
    2.4668915233475266        4.2045571589886173       -11.635776376172497                2
   -1.5650935804208372        5.4533850761108504E-002  -8.5776916819851614                2
   -2.8656585616403132        6.2740946167003209E-002  -10.974458669344745                2
   -2.9144905243283610        1.7876450218935656       -9.6328408111672186                1
   -1.9509226995417186        2.7132380298350975       -8.8437098813588211                1
   -3.5939688759566910        1.2817088877724361       -8.9271726586317186                2
   -3.5275458066995160        2.3989037028518641       -10.315639699964215                2
   -1.2659725219090039        3.2273938815639900       -9.5365599019455622                2
   -1.3463852135528411        2.1216330024860870       -8.1383737820566875                2
   -2.7310220010273163        3.7395664817524801       -8.0631419743786914                1
   -2.6624731491899913        4.9354484884318390       -8.2971234837602523                4
  -0.26446316492834310        2.0898979191135543       -10.989242609678561                3
   0.66159421467418245        2.7528503492718510       -11.830631224624796                1
    1.1779801710998288        1.7906489496038356       -12.900663962234024                1
    1.0702826517514579        2.0557354070125671       -14.086910522757229                4
    2.4315029953884588        3.0545334434375251       -10.511683023500186                2
    2.6617613397707194       -3.2083087736787710       -9.9723665223659168                4
   -8.9782600337474650E-002   2.2234129269316183       -9.9800821542162268                2
    5.7324425838760185E-002   3.4897572516804649       -12.385773182949931                2
    1.8437743780931153        3.6772839333530332       -11.043699942803949                1
    1.5014976443341124        4.3512966250366789       -10.376403926090314                2
    1.7389237426147326       0.69699802061306881       -12.419342870011203                3
    2.2742504230616332      -0.28691489592026664       -13.284847646222911                1
    1.2693341199646273      -0.61833049968212361       -14.387899520268933                1
    1.5689473644309730      -0.50282261798718508       -15.565157163625718                4
    2.8525267253595814       -4.0402461634297850       -9.5555780330738429                2
   -3.1081060680922068       -2.2154141241019203       -14.765261322288078                2
    1.8301388181357510       0.47253001819803586       -11.415608643677780                2
    3.1785286889920616       0.12923886762234116       -13.760821761093263                2
    2.6501846635378596       -1.5607259487979261       -12.479225639867236                1
    1.4196018635894188       -2.1735170371111066       -11.759457587758124                1
    3.4160770388226247       -1.2965092463363668       -11.731410056894624                2
    3.0845137249342436       -2.3119350320258878       -13.159469314639209                2
   0.64545534035023433       -2.4442252823409287       -12.494963090816347                2
   0.98651056819288141       -1.4441012154342656       -11.057071950396830                2
    1.8222701680993458       -3.4029546477960375       -10.986455218062552                1
    1.4120165009265468       -4.5183202135822595       -11.264361050030086                4
    9.5713424944607439E-002  -1.0277558399447688       -13.943618760195124                3
  -0.94576294425373053       -1.3651484831687812       -14.841681214452905                1
   -1.1026644254339284      -0.26925647673870712       -15.896128312710474                1
   -1.0240769474450868      -0.52814112327611984       -17.086024625808925                4
   -2.7841779540846758       -1.1535588346301662       -13.601248141681319                2
   -1.1659540093933711        4.8787417909703503       -12.853067512445806                4
  -0.15713318467691240       -1.1252665949652476       -12.946972069803719                2
  -0.56307135564500443       -2.2364357491662017       -15.399141530076220                2
   -2.3843751421975234       -1.9114991241640127       -14.132255987045861                1
   -2.2892175517825391       -2.6715366901104858       -13.476498123950094                2
   -1.3345308313201922       0.93109593023817205       -15.398341103111202                3
   -1.5124729101108534        2.0488422759510918       -16.248480812928779                1
  -0.40469614407550392        2.0893071591957422       -17.300911211953935                1
  -0.67046045008981148        2.0945764911731581       -18.491871871250833                4
   -1.1196680653898585        5.7202668810927282       -12.414984152718283                2
    4.2621819895432811        2.3141733519415797       -17.458214476155348                2
   -1.4010609343389380        1.1503348066106764       -14.391516127114482                2
   -2.4766352319770100        1.9323483447785126       -16.772193210848428                2
   -1.5292865637560282        3.3586743388405864       -15.413612417988171                1
  -0.20671320109364455        3.5599511874312486       -14.627355255971848                1
   -2.3727480889700234        3.3187892365020799       -14.704661377273062                2
   -1.6886712316809107        4.2201420127855442       -16.083058644659332                2
   0.64598254392208654        3.6032930690539433       -15.323477073297521                2
   -4.3048665206169012E-002   2.7191573186263387       -13.935083139512940                2
  -0.26071395557691668        4.8361502637478493       -13.827610858716776                1
   0.47506824391682922        5.7839542978780010       -14.050931559169182                4
   0.81578067801137610        2.1196459043078701       -16.798998943414006                3
    1.9507431580632990        2.1503679236700064       -17.645130920487055                1
    1.8230757149550514        1.0811972505003713       -18.730502350564464                1
    1.8800230193897791        1.3779514842367204       -19.912764764596727                4
    3.5837585908657923        1.3720733033850516       -16.344849328458530                2
   0.21193391084235857       -3.9166765230330127       -15.868406860310927                4
    1.0399263063510640        2.1151605607631825       -15.790791126429834                2
    1.8706507367674661        3.1082708857708541       -18.185837379735553                2
    3.4524165191488101        2.2263564341085518       -16.863727632915058                1
    3.5574683417656985        2.9654511609798053       -16.185912361783689                2
    1.6642192272375707      -0.14431060480693492       -18.266503265973054                3
    1.5406915293070065       -1.2451286299887125       -19.147808198865178                1
   0.52079718346690829      -0.92966968573721542       -20.241754125989235                1
   0.82761413140547235      -0.98776028898914259       -21.421387360644843                4
  -0.10270127948527952       -4.7154380727700378       -15.461948274840266                2
   -3.9893093653949161       0.25295780193392337       -20.581447788459862                2
    1.6160106803957892      -0.39559422425177515       -17.266142856559714                2
    2.5189555065560971       -1.4103477605424311       -19.630671248820136                2
    1.1286419471193678       -2.5183145046679503       -18.359036471225409                1
  -0.22874229466297225       -2.3327516949111047       -17.630347608439003                1
    1.9121501982589382       -2.7478062437533208       -17.618038423570585                2
    1.0553033976124735       -3.3730630766146303       -19.051650803692500                2
   -1.0226765566498051       -2.1040837831144890       -18.358999453683975                2
  -0.16668697109264707       -1.4969542481187685       -16.915817791896686                2
  -0.59370561145963441       -3.5841776281628284       -16.874089599309116                1
   -1.5669631135649498       -4.2638243545480137       -17.157691838964652                4
  -0.67526662035614038      -0.60522254504319795       -19.787259384382192                3
   -1.7277056263948185      -0.27690553682831376       -20.675855510911674                1
   -1.2378949343348671       0.72904791924538315       -21.717776417697113                1
   -1.3259204093057937       0.48902966469401532       -22.910962589798817                4
   -3.1135081090370837       0.92463396793323338       -19.411312732965669                2
    1.6529646025888471        4.9532168564311450       -18.624972075641640                4
  -0.93419686806334301      -0.55627248650633787       -18.788608594737763                2
   -1.9112806223833183       -1.2028279199167065       -21.246227596629186                2
   -3.2183983338092346        8.1789312404904502E-002  -19.954356037147484                1
   -3.5696694404539739      -0.60698741088800556       -19.307111354558263                2
  -0.74332118583613438        1.8406304460214045       -21.205740157619111                3
  -0.25746001419155018        2.8735082116797885       -22.042914121386552                1
   0.67178765423671383        2.2921086691655130       -23.108226216137219                1
   0.45089468532598875        2.4652140356375347       -24.295781079883806                4
    2.1718261162100494        5.6123855419550344       -18.179435017266954                2
    4.6367050013831204      -0.17562990661062550       -23.319785636764351                2
  -0.66876135946169812        2.0438919227646339       -20.196129304643375                2
   -1.1189485257957550        3.3339557218203018       -22.556022423079042                2
   0.47776429055354130        3.9477951342433371       -21.195387841303486                1
    1.6834026776630266        3.3492889268111945       -20.423287203856717                1
  -0.23534368479923851        4.3843741557468556       -20.476704658668154                2
   0.83387294549080693        4.7567160983424923       -21.854570500713763                2
    2.4061286822858530        2.9101096575816161       -21.129221216078605                2
    1.3426794552232968        2.5545958299482958       -19.741134976719387                2
    2.3687521657403776        4.4175942330736255       -19.610753440121101                1
    3.5121046905086875        4.7816662596093122       -19.833860210033503                4
    1.6949283782593971        1.6153234639773875       -22.620840451861561                3
    2.6419140049712144        1.0074014607962261       -23.480300780913836                1
    1.9236927059000068       0.21689744192076676       -24.574246669970996                1
    2.1340679977411794       0.44596697176249078       -25.754212717744991                4
    3.5477618715790813      -0.58078133449680536       -22.207379262526590                2
   -2.2321508180648948       -3.0184219246520421       -21.740912243398956                4
    1.8812229270848095        1.4692371425572299       -21.615505925530599                2
    3.1186766492882656        1.8486096488991757       -24.010793494165711                2
    3.9235185755703670       0.20405601693528763       -22.716419863629891                1
    4.4334975018227549       0.74202804454380322       -22.032871740392956                2
    1.0978241461262499      -0.70728715710872314       -24.120127756117970                3
   0.36591581425884012       -1.5291815299802576       -25.010384818368351                1
  -0.29817913269426821      -0.67342552244506515       -26.088844863958965                1
   -8.4227612117946826E-002 -0.87832537958039292       -27.272604350159728                4
   -2.9435568346869401       -3.5022314295504673       -21.338353252966101                2
   -3.3355395831286296        2.8698137404678503       -26.362628834251520                2
   0.91969119095359630      -0.90125347231680331       -23.121711916566724                2
    1.0741844230097941       -2.2144390573700914       -25.506602706485157                2
  -0.69382961881695815       -2.3533246312538783       -24.228927375528787                1
   -1.7011774536110340       -1.4392881648694511       -23.482133779939943                1
  -0.17678896536442945       -2.9987027800888710       -23.499690959001150                2
   -1.2436041846223573       -3.0042193028497879       -24.928764735634605                2
   -2.2272049650654755      -0.78883837597021778       -24.198907291060088                2
   -1.1713662202262727      -0.79788112136202094       -22.760428746201537                2
   -2.7099673073696473       -2.2718457297527967       -22.733546977309093                1
   -3.8982939756474404       -2.2728364575810733       -23.011861214222829                4
   -1.0950749294179944       0.26708562634756694       -25.616832249100732                3
   -1.7776936840271715        1.1488977205124880       -26.489450185453293                1
  -0.80719706504640243        1.7128005536922748       -27.527528194712666                1
   -1.0215116143931766        1.5831295339740454       -28.721808391428805                4
   -2.2279078980648874        2.9066061167646295       -25.196785305682688                2
    3.9874816070228247        3.4959905619719969       -24.429561023018014                4
   -1.2756618540114526       0.43989852056614520       -24.614700297619631                2
   -2.4580674488838539       0.50038685929886806       -27.066409074451514                2
   -2.7961830889386903        2.2812414423849479       -25.746573840306525                1
   -3.4740524478971784        1.9051575950103796       -25.101760289484638                2
   0.23429734954828074        2.3379111545797779       -27.010879222920352                3
    1.2177856212582467        2.9231777037934008       -27.843928852075035                1
    1.6463227846685990        1.9321873247297510       -28.925922605741384                1
    1.5578434203403075        2.2177231781782170       -30.109006036461953                4
    4.7912237438308640        3.7362557793824140       -23.984033134271616                2
    3.5016518310261517       -2.3494774365028346       -29.209050907854447                2
   0.41579971593954301        2.4477283076779255       -26.000341962003478                2
   0.76905853252318845        3.7994641868100016       -28.342146168834603                2
    2.4374571157297122        3.3757636990009816       -26.995097106481481                1
    3.0917927277404571        2.1863463602076925       -26.243402823859839                1
    2.1026961260688379        4.1298274382005706       -26.263692498711137                2
    3.1876136428290742        3.8480636508795927       -27.650754195416841                2
    3.4330405178353454        1.4244846485626519       -26.962200998632163                2
    2.3624868432407444        1.7166539054705963       -25.564828569244980                2
    4.2668903987550220        2.6629038810553904       -25.429013691992928                1
    5.4132508510265041        2.3151182317249726       -25.662429466578565                4
    2.1047670700690571       0.78642775903279349       -28.457452869890641                3
    2.5337234087544491      -0.23950119784802504       -29.334088045281788                1
    1.4884014675955202      -0.46477418459472086       -30.426795768088308                1
    1.7864412020347062      -0.37867857557083773       -31.606969632281785                4
    2.3806520589032605       -2.0795512308217301       -28.087493012263391                2
   -3.7572303244996812      -0.80269191824107500       -27.574556388881049                4
    2.1793512084534550       0.54548180418380832       -27.455890771716966                2
    3.4020457380768399       0.18880870529056981       -29.862219956121841                2
    3.1339360442486681       -1.6404487198046731       -28.593494320085071                1
    3.8624809598448868       -1.4983009976263220       -27.911037892546528                2
   0.28544491504053404      -0.76158176922609355       -29.971602591103029                3
  -0.78807886239321512       -1.0078866482189728       -30.860781093671903                1
  -0.85209074900568549        8.9502558549607425E-002  -31.922880863037957                1
  -0.79805827529061446      -0.18322370593737380       -33.111050296340821                4
   -4.6157174757968669      -0.80174490659744102       -27.168080299467341                2
   -1.3348832435308422        4.7350097084482794       -32.125945799695046                2
    3.3077485031922649E-002 -0.83447530341472353       -28.973010741593789                2
  -0.59779796196701618       -1.9669640570871645       -31.372071810582401                2
   -2.1249633856623160       -1.0942130380169566       -30.074501567199000                1
   -2.4298818872467653       0.21942992966385932       -29.306855909820001                1
   -2.0637392575540807       -1.9297996559600101       -29.357789383845272                2
   -2.9505598684110961       -1.3063345462055234       -30.773846395946283                2
   -2.4955543477253062        1.0641154489660178       -30.010949398777353                2
   -1.6260020031025313       0.43478420746169233       -28.585495556439579                2
   -3.7298000213476721        9.7681370213128726E-002  -28.554139894462605                1
   -4.7087998122575323       0.77700806157473568       -28.818061707738327                4
  -0.97011960802246300        1.3092462054164014       -31.432274438372179                3
   -1.0336136965302387        2.4355602809666181       -32.288082887009914                1
    8.0649174690587522E-002   2.3624582268375001       -33.332367517724933                1
  -0.17473228967758647        2.3953846422692373       -34.525156957441091                4
  -0.39788418521319180        4.1179274745182592       -30.973281476151392                2
    5.0519713334644436        1.0553363876510728       -30.275653717338532                4
   -1.0157888602580583        1.5392882491967432       -30.426421884531340                2
   -1.9646965459052437        2.2978822524965765       -32.862961869491343                2
   -1.2234936740136870        3.9351086557731692       -31.522126948645866                1
   -1.9920186501379997        4.0019811681439403       -30.872798163730586                2
    1.2951035635419945        2.2763453252811563       -32.822382082259537                3
    2.4331264298649700        2.2103927365900429       -33.661615072542872                1
    2.2167842492014156        1.1677028190787913       -34.758159786344841                1
    2.3011850783748216        1.4702923323649080       -35.937295830958504                4
    5.8516184045099111       0.78907960805943467       -29.837594603976889                2
    1.3048981830552400       -3.4043226214775828       -35.104725532083044                2
    1.5113808737450949        2.2484725510859702       -31.813107241214905                2
    2.5605034623933891        3.1935766768090517       -34.145948558011547                2
    3.6974237081517618        1.8761490907615221       -32.823294401536025                1
    3.5620878751492295       0.51477323517920826       -32.091001436714635                1
    3.8544932439681183        2.6758459957190555       -32.080701804290364                2
    4.5800907835064395        1.8474292090228090       -33.483417328450848                2
    3.4059720870936196      -0.29521216872959144       -32.821142275055159                2
    2.6981533091498902       0.53343708397631273       -31.408191199009785                2
    4.8032164283074570       0.22610709203583146       -31.286350555613787                1
    5.5469530295158824      -0.70858230359768193       -31.536933213557926                4
    1.9439325973208526       -4.2151782424231898E-002  -34.306270576265824                3
    1.7089769546045881       -1.1168408161763508       -35.197821093106050                1
   0.71629838567873616      -0.69126929463491127       -36.279918217199622                1
    1.0050725591316620      -0.77260674587225653       -37.462730198922188                4
   0.54170163188687059       -2.5611933271379783       -33.967159367041816                2
   -3.7767667637019970        1.9729777765245244       -33.367828955936190                4
    1.8726622739381424      -0.29749153637423209       -33.308038873472377                2
    2.6643563129829220       -1.2508391401399739       -35.732284456684106                2
    1.4087229292598380       -2.6211990886988219       -34.478000322025061                1
    2.0917681536494861       -2.9288538444876586       -33.803072016653587                2
  -0.43975978167148622      -0.25769114653737057       -35.813078265529541                3
   -1.4666827122311679       0.16362576877707369       -36.691530969354069                1
  -0.89966937049733797        1.1180788908030390       -37.742212473186910                1
   -1.0157551524994375       0.88062270683782984       -38.933507724269475                4
   -4.4803550862761288        2.4561451713513542       -32.951011682271968                2
    1.3457281053159216        5.2156318273694584       -37.894891058434261                2
  -0.68427991927236054      -0.18880021122517121       -34.812252400690618                2
   -1.8582269053627405      -0.72570457833436586       -37.214253814344360                2
   -2.6116210938059732       0.84158147495442126       -35.890007338075641                1
   -2.1114449683939815        2.0838957139205272       -35.106175615449146                1
   -3.0335105552663633       0.10908723291910194       -35.182129374487673                2
   -3.4143652055296090        1.1471597853869131       -36.581319181012439                2
   -1.6879794796051959        2.8262161408041315       -35.801295390371834                2
   -1.3246205622583789        1.7930051137540670       -34.392557295241261                2
   -3.2462912178680612        2.7121900217855117       -34.338997982382232                1
   -3.6659879648804323        3.8316291444913695       -34.584539745605042                4
  -0.30048309377209215        2.1809508048637087       -37.238546769828872                3
   0.28434073712780528        3.1558484276140844       -38.082690542320840                1
    1.1543384145273965        2.4772551619774301       -39.141024737847637                1
   0.95771230340893165        2.6672225824746141       -40.330268631505618                4
    1.7702947839467651        4.1581496229729513       -36.759608148419893                2
    4.5123281302624854       -1.4708439677488319       -36.157314112301563                4
  -0.20262624680559682        2.3812422095490455       -36.230056922160962                2
  -0.56222943416643556        3.5808132874404395       -38.647562357576547                2
   0.98488913784514587        4.4856086624926865       -37.300157544612212                1
   0.39388105962143438        4.9682211982116780       -36.640972415097337                2
    2.1063013664899159        1.7080213166607949       -38.646610066520466                3
    3.0008261933678932        1.0187630540431307       -39.500135803695315                1
    2.2247032939669618       0.30064511253333270       -40.603927623185918                1
    2.4609885513349568       0.51884854397206137       -41.781043702770553                4
    5.0203603249446624       -2.1511626021180836       -35.731528083408094                2
   -1.1282245511379356       -2.9349464876169029       -40.983246096613584                2
    2.2728228415783285        1.5471645260242863       -37.640337656882160                2
    3.6628335408827102        1.7618987606004275       -39.976528591105456                2
    3.8540624934348360        1.2294680529529867E-002  -38.680405849923424                1
    2.9714304889715253       -1.0409523949912545       -37.959611610476486                1
    4.4415905366171069       0.56954969880658179       -37.932136254536850                2
    4.5605926520217341      -0.50372131335410075       -39.351398327843008                2
    2.3788884303599653       -1.6073938093973477       -38.695541071956832                2
    2.2746844021833645      -0.54419698575715802       -37.266257410723377                2
    3.8313973268886601       -1.9962658122589549       -37.172830459838622                1
    3.9100191080342332       -3.1842490411137438       -37.441334708399246                4
    1.3139464920390331      -0.54563813517941306       -40.160388730133555                3
   0.50523012256550448       -1.2825051901619295       -41.059292381325228                1
   -7.3776828378931292E-002 -0.35186388481166020       -42.125178753579981                1
   0.11209587280614741      -0.56556774179710390       -43.312121248912419                4
   -1.2709641952569930       -1.8242737765233965       -39.828506175121518                2
   -2.2394728728043241        4.3519817204807278       -39.133572506998377                4
    1.1145318245316345      -0.72978857036747535       -39.163861364859962                2
    1.2122133435023059       -1.9283098940690060       -41.606528494418690                2
  -0.59443143944706467       -2.3593182999517901       -40.350345126259150                1
  -0.20477553904524370       -3.0108399582489880       -39.686704973279397                2
  -0.77562354374200115       0.65544202704673493       -41.640260174555195                3
   -1.3842968659816277        1.5990601759886109       -42.502153077494945                1
  -0.37965817694351234        2.0768245588578593       -43.550417744524736                1
  -0.61558099452220016        1.9651957243954690       -44.742443396294284                4
   -2.5412520214423040        5.1433944020017526       -38.703666459109144                2
    3.7976253527311199        4.1710098289905302       -43.690956015971921                2
  -0.93300448824111193       0.83642191361181872       -40.635936527210404                2
   -2.2146531139871559        1.0982473621432014       -43.028603001139331                2
   -1.9364445531430050        2.7960458406829396       -41.680382902490742                1
  -0.81473570085360425        3.5214549035164491       -40.890785577368639                1
   -2.6969881570446583        2.4232934242283308       -40.974508404578685                2
   -2.4257864777749258        3.5141980164155280       -42.358977191134016                2
   -4.7247655116430032E-002   3.9012022474435870       -41.583828284636382                2
  -0.33002734061489569        2.8241074639625925       -40.189554199409201                2
   -1.3869962473947854        4.6723707465572142       -40.103955318652247                1
   -1.0962571689650158        5.8352485701453665       -40.333663878854885                4
   0.72010715266997050        2.6024915363582828       -43.043870129802322                3
    1.7519522089127442        3.0838858405893510       -43.885641061774358                1
    2.0764943932528244        2.0465792369881992       -44.960872863305426                1
    2.0175572028519024        2.3322000245559273       -46.145776935896500                4
    3.5501398266031368        3.0431732659212805       -42.571077289644037                2
    2.6047475866614667       -3.1542425417532591       -42.055961132992500                4
   0.91907213552310019        2.6966294585622048       -42.034763907139649                2
    1.2950705343613595        3.9232728772567920       -44.436136197159904                2
    3.0881828951705206        3.7672282103865449       -43.098927015012940                1
    2.8797534342646491        4.4905605677418734       -42.428048557353165                2
    2.4238354368535884       0.86519012304415899       -44.485400468389656                3
    2.7633979968207054      -0.19786275312390700       -45.356246982832069                1
    1.7116062112957504      -0.33052901263110135       -46.457405563208340                1
    2.0247821881606001      -0.26815047206453846       -47.635147237023716                4
    2.6373199964979470       -4.0089556457310245       -41.642889170862041                2
   -2.8883510550032412       -1.0780211307987255       -46.827147800726394                2
    2.4737594862822530       0.62333369631706548       -43.482803076794980                2
    3.7284901195356230        4.3620959398432024E-002  -45.833465281763651                2
    2.8960269316492067       -1.5229616489042117       -44.556578018402561                1
    1.5741527174915548       -1.8975385744620032       -43.835291888049071                1
    3.6996048812976117       -1.4100306445360895       -43.810160701707396                2
    3.1803928939573005       -2.3393065513382996       -45.240979419677458                2
   0.76127993452337961       -2.0153530596491551       -44.569397958438799                2
    1.2869734336975469       -1.1029274268040046       -43.128834333527912                2
    1.7412758330212457       -3.1839164761175600       -43.068158897652602                1
    1.1287534030028512       -4.2015326163883602       -43.348967963057618                4
   0.48312304765962111      -0.51483138492033920       -46.011018072345600                3
  -0.60521941835702808      -0.64739685294862648       -46.907098465067882                1
  -0.55659501383454035       0.46297713382162353       -47.956937177539523                1
  -0.53067616981655341       0.19903241891647205       -49.148034104331956                4
   -2.3685649079254052      -0.10058169524143645       -45.660174247322814                2
  -0.55809240087897116        1.4762822742989461       -47.539293320203541                2
   0.21883202265014567      -0.56751860447165581       -45.013963062540270                2
  -0.39377571996203287       -1.5725487197801320       -47.469007659394045                2
   -2.1190240722448284      -0.91770971858782624       -46.195259536959412                1
   -2.1663413740630970       -1.6849111626245594       -45.542654403352984                2
UseSaveData              F     # default value
MD.UseSaveXV              F     # default value
MD.UseSaveZM              F     # default value
WriteCoorInitial              T     # default value
MD.TypeOfRun     none     # default value
MaxBondDistance          6.000000000     Bohr     # default value
Output-Structure-Only              F     # default value
WriteCoorXmol              F     # default value
SpinPolarized              F     # default value
NonCollinearSpin              F     # default value
HSetupOnly              F     # default value
LongOutput              F
WriteDenchar              F     # default value
WriteMullikenPop         0     # default value
WriteHirshfeldPop              F     # default value
WriteVoronoiPop              F     # default value
PartialChargesAtEveryGeometry              F     # default value
PartialChargesAtEveryScfStep              F     # default value
MeshCutoff          100.0000000     Ry     # default value
NetCharge          0.000000000         # default value
MinSCFIterations         0     # default value
MaxSCFIterations        50     # default value
SCFMustConverge              F     # default value
MixHamiltonian              F     # default value
TS.MixH              F     # default value
MixCharge              F     # default value
Compat-pre-v4-DM-H              F     # default value
SCF.MixAfterConvergence              F     # default value
SCF.Recompute-H-After-Scf              F     # default value
DM.NumberPulay              3
DM.NumberBroyden         0     # default value
DM.FIRE.Mixing              F     # default value
DM.MixSCF1              F     # default value
DM.PulayOnFile              F     # default value
DM.Pulay.Avoid.First.After.Kick              F     # default value
DM.MixingWeight         0.2500000000    
DM.OccupancyTolerance         0.1000000000E-11     # default value
DM.NumberKick         0     # default value
DM.KickMixingWeight         0.5000000000         # default value
DM.Tolerance         0.1000000000E-03     # default value
DM.RequireEnergyConvergence              F     # default value
DM.EnergyTolerance         0.7349806700E-06 Ry     # default value
DM.RequireHarrisConvergence              F     # default value
DM.HarrisTolerance         0.7349806700E-06 Ry     # default value
MonitorForcesInSCF              F     # default value
UseSaveData              F     # default value
DM.UseSaveDM              F     # default value
NeglNonOverlapInt              F     # default value
SolutionMethod     diagon                                                                          
Diag.DivideAndConquer              T     # default value
Diag.Memory          1.000000000         # default value
ElectronicTemperature         0.1900000000E-02 Ry     # default value
FixSpin              F     # default value
ON.MaxNumIter      1000     # default value
ON.etol         0.1000000000E-07     # default value
ON.eta          0.000000000     Ry     # default value
ON.eta_alpha          0.000000000     Ry     # default value
ON.eta_beta          0.000000000     Ry     # default value
On.RcLWF          9.500000000     Bohr     # default value
ON.UseSaveLWF              F     # default value
ON.functional     kim     # default value
ON.ChemicalPotentialUse              F     # default value
ON.ChemicalPotential              F     # default value
ON.ChemicalPotentialRc          9.500000000     Bohr     # default value
ON.ChemicalPotentialTemperature         0.5000000000E-01 Ry     # default value
ON.ChemicalPotentialOrder       100     # default value
MD.VariableCell              F     # default value
compat-pre-v4-dynamics              F     # default value
MD.TypeOfRun     cg     # default value
MD.UseSaveCG              F     # default value
Optim.Broyden              F     # default value
MD.NumCGsteps         0     # default value
MD.MaxCGDispl         0.2000000000     Bohr     # default value
MD.MaxForceTol         0.1555740000E-02 Ry/Bohr     # default value
MD.MaxStressTol         0.6797730000E-04 Ry/Bohr**3     # default value
MD.InitialTimeStep         1     # default value
MD.FinalTimeStep         1     # default value
MD.LengthTimeStep          1.000000000     fs     # default value
MD.Quench              F     # default value
MD.FireQuench              F     # default value
MD.InitialTemperature          0.000000000     K     # default value
MD.TargetTemperature          0.000000000     K     # default value
MD.TargetPressure          0.000000000     Ry/Bohr**3     # default value
MD.NoseMass          100.0000000     Ry*fs**2     # default value
MD.ParrinelloRahmanMass          100.0000000     Ry*fs**2     # default value
MD.AnnealOption     TemperatureAndPressure     # default value
MD.TauRelax          100.0000000     fs     # default value
MD.BulkModulus         0.6797730000E-02 Ry/Bohr**3     # default value
MD.FCDispl         0.4000000000E-01 Bohr     # default value
MD.FCfirst         1     # default value
MD.FClast       834     # default value
UseSpatialDecomposition              F     # default value
UseDomainDecomposition              F     # default value
Harris_functional              F     # default value
WriteKpoints              F     # default value
WriteForces              F     # default value
WriteDM              F
WriteDM.NetCDF              F
WriteDM.History.NetCDF              F     # default value
WriteDMHS.NetCDF              F
WriteDMHS.History.NetCDF              F     # default value
SCF.Read.Charge.NetCDF              F     # default value
SCF.Read.Deformation.Charge.NetCDF              F     # default value
SaveInitialChargeDensity              F     # default value
UseNewDiagk              F     # default value
WriteBands              F     # default value
WriteKbands              F     # default value
WriteEigenvalues              F     # default value
WriteCoorStep              F     # default value
WriteMDhistory              F     # default value
WriteMDXmol              T     # default value
UseSaveData              F     # default value
SaveHS              F     # default value
FixAuxiliaryCell              F     # default value
NaiveAuxiliaryCell              F     # default value
ReInitialiseDM              T     # default value
DM.AllowReuse              T     # default value
DM.AllowExtrapolation              T     # default value
DM.NormalizationTolerance         0.1000000000E-04     # default value
DM.NormalizeDuringSCF              T     # default value
MullikenInSCF              F     # default value
WarningMinimumAtomicDistance          1.000000000     Bohr     # default value
BornCharge              F     # default value
ChangeKgridInMD              F     # default value
Diag.ParallelOverK              F     # default value
MD.RelaxCellOnly              F     # default value
MD.RemoveIntraMolecularPressure              F     # default value
COOP.Write              F     # default value
SaveRho              F     # default value
SaveDeltaRho              F     # default value
SaveRhoXC              F     # default value
SaveElectrostaticPotential              F     # default value
SaveNeutralAtomPotential              F     # default value
SaveTotalPotential              F     # default value
SaveIonicCharge              F     # default value
SaveBaderCharge              F     # default value
SaveTotalCharge              F     # default value
Siesta2Wannier90.WriteMmn              F     # default value
Siesta2Wannier90.WriteUnk              F     # default value
Siesta2Wannier90.WriteAmn              F     # default value
Siesta2Wannier90.WriteEig              F     # default value
Siesta2Wannier90.NumberOfBandsUp         0     # default value
Siesta2Wannier90.NumberOfBandsDown         0     # default value
Siesta2Wannier90.NumberOfBands         0     # default value
RcSpatial          0.000000000     Bohr     # default value
ProcessorGridX         1     # default value
ProcessorGridY         1     # default value
ProcessorGridZ         1     # default value
processorY         4     # default value
blocksize       485     # default value
NumberOfEigenStates      7754     # default value
TimeReversalSymmetryForKpoints              T     # default value
%block kgrid_Monkhorst_Pack
 1 0 0 0.0
 0 1 0 0.0
 0 0 1 0.0
LongOutput              F
WriteWaveFunctions              F     # default value
ForceAuxCell              F     # default value
AtomicCoordinatesFormat     NotScaledCartesianAng                                                           
AtomCoorFormatOut     NotScaledCartesianAng      # default value
LatticeConstant          1.889726878           Bohr
# above item originally: LatticeConstant          1.000000000     Ang       
SCF.Pulay.Damping         -1.000000000         # default value
SCF.MixingWeightAfterPulay         0.5000000000         # default value
SCF.PulayMinimumHistory         2     # default value
SCF.PulayDmaxRegion          1000.000000         # default value
SCF.LinearMixingAfterPulay              F     # default value
SCF.Pulay.UseSVD              F     # default value
SCF.Pulay.DebugSVD              T     # default value
SCF.Pulay.RcondSVD         0.1000000000E-07     # default value
MeshSubDivisions         2     # default value
LatticeConstant          1.889726878           Bohr
# above item originally: LatticeConstant          1.000000000     Ang       
%block LatticeVectors
    30.000000000000000        0.0000000000000000        0.0000000000000000
    0.0000000000000000        30.000000000000000        0.0000000000000000
    0.0000000000000000        0.0000000000000000        127.85544166144302
PROCS_PER_NODE         4     # default value
PROCS_PER_NODE         4     # default value
DirectPhi              F     # default value
SimulateDoping              F     # default value
SlabDipoleCorrection              F     # default value
Diag.ParallelOverK              F     # default value
LatticeConstant          1.889726878           Bohr
# above item originally: LatticeConstant          1.000000000     Ang       
%block LatticeVectors
    30.000000000000000        0.0000000000000000        0.0000000000000000
    0.0000000000000000        30.000000000000000        0.0000000000000000
    0.0000000000000000        0.0000000000000000        127.85544166144302
Diag.AllInOne              F     # default value
Diag.DivideAndConquer              T     # default value
Diag.NoExpert              F     # default value
Diag.PreRotate              F     # default value
Diag.Use2D              T     # default value
SingleExcitation              F     # default value
OccupationFunction     FD     # default value
OccupationFunction     FD     # default value
SCF.Want.Variational.EKS              F     # default value
SCF.Want.Variational.EKS              F     # default value
SCF.Want.Variational.EKS              F     # default value
SCF.Want.Variational.EKS              F     # default value
SCF.Want.Variational.EKS              F     # default value
SCF.Want.Variational.EKS              F     # default value
SCF.Want.Variational.EKS              F     # default value
SCF.Want.Variational.EKS              F     # default value
SCF.Want.Variational.EKS              F     # default value
SCF.Want.Variational.EKS              F     # default value
SCF.Want.Variational.EKS              F     # default value
SCF.Want.Variational.EKS              F     # default value
SCF.Want.Variational.EKS              F     # default value
SCF.Want.Variational.EKS              F     # default value
SCF.Want.Variational.EKS              F     # default value
SCF.Want.Variational.EKS              F     # default value
SCF.Want.Variational.EKS              F     # default value
SCF.Want.Variational.EKS              F     # default value
