s.subSiesta: Submission time = 01s17m13h
s.subSiesta: Job name = qw128_s32_n2_c16_vesta
s.subSiesta: Number of nodes = 2
s.subSiesta: Number of cores = 32
s.subSiesta: Number of cores/node = 16
s.subSiesta: Number of slices = 32
s.subSiesta: Mapping = ABCDET
01s17m13h
#QETSc options
-ioptbin 7
-ioptdensity 0
-ioptinertia 1
-ioptleft 2
-roptbuffer 0.1
-roptdiff 0.02
-writeeigs 1

#PETSc options
-mat_type mpisbaij
-log_view
#-mat_view
#-memory_view
#-mat_mumps_icntl_13 1 #turn off scaLAPACK for matrix inertia
#-mat_mumps_icntl_24 1 #null pivot row detection for matrix inertia
-mat_mumps_icntl_23 0
#-mat_mumps_icntl_28 1 # serial analysis
#-mat_mumps_icntl_28 2 #parallel analysis
#-mat_mumps_icntl_29 1 #ptscotch
#-mat_mumps_icntl_29 2 #parmetis
-mat_mumps_icntl_7 5 #metis
#-malloc_info 
#-mat_view ::ascii_info 
#-mat_getrow_uppertriangular 1
#-st_type sinvert 
#-st_ksp_type preonly 
#-st_pc_type cholesky 
#-st_pc_factor_mat_solver_package mumps 

#SLEPc options

#-eps_krylovschur_partitions 1  
-eps_interval -2.3,0.
#-eps_tol  1.e-8
-eps_krylovschur_detect_zeros 0
#-eps_purify 1
SystemName liquid_D2O_128
SystemLabel D2O_128

#UseTreeTimer .true.
DM.MixingWeight 0.3
DM.NumberPulay 3

SolutionMethod  qetsc #slepc0 for the older method
#SolutionMethod diagon
#BlockSize 23
WriteDM .false.
WriteDM.NetCDF .false.
WriteDMHS.NetCDF .false.
LongOutput .false.

#MaxSCFIterations 2
##################################################
# Do not change below this line                  #
##################################################

%block SuperCell
1 0 0
0 1 0
0 0 1
%endblock SuperCell

NumberOfAtoms 384
NumberOfSpecies 2

xc.functional GGA
xc.authors PBE 
MeshCutoff 150.0 Ry

%block ChemicalSpeciesLabel
  1   8  O
  2   1  H  
%endblock ChemicalSpeciesLabel

#%block AtomicMass
#  2   2.0
#%endblock AtomicMass

%Block PAO.Basis
O    3     -0.24233
n=2   0   2   E    23.36061     3.39721
     4.50769     2.64066
     1.00000     1.00000
n=2   1   2   E     2.78334     5.14253
     6.14996     2.59356
     1.00000     1.00000
n=3   2   1   E    63.98188     0.16104
     3.54403
     1.00000
H    2      0.46527
n=1   0   2   E    99.93138     2.59932
     4.20357     1.84463
     1.00000     1.00000
n=2   1   1   E    24.56504     2.20231
     3.52816
     1.00000
%EndBlock PAO.Basis

LatticeConstant 15.646046088993955 Ang
%block LatticeVectors   
  1.0  0.0  0.0
  0.0  1.0  0.0
  0.0  0.0  1.0
%endblock LatticeVectors   

AtomicCoordinatesFormat NotScaledCartesianAng
%block AtomicCoordinatesAndAtomicSpecies < coord128.data

Siesta Version: siesta-trunk-492
Architecture  : powerpc64-unknown-linux-gnu--Xlf
Compiler flags: mpixlf90_r -I/home/keceli/scratch2/petsc/include -I/home/keceli/scratch2/petssc/arch-xl/include -I/bgsys/drivers/V1R2M4/ppc64/comm/include -I/bgsys/drivers/V1R2M4/ppc64/comm/lib/xl -I/bgsys/drivers/V1R2M4/ppc64 -I/bgsys/drivers/V1R2M4/ppc64/comm/sys/include -I/bgsys/drivers/V1R2M4/ppc64/spi/include -I/bgsys/drivers/V1R2M4/ppc64/spi/include/kernel/cnk -I/home/keceli/scratch2/slepcfork/include -I/home/keceli/scratch2/slepcfork/arch-xl/include
PP flags      : -WF,-DMPI -WF,-DFC_HAVE_ABORT -WF,-DBSC_CELLXC -WF,-DMPI_TIMING 
PARALLEL version

* Running on   32 nodes in parallel
>> Start of run:  12-JAN-2017  13:17:46

                           ***********************       
                           *  WELCOME TO SIESTA  *       
                           ***********************       
WARNING: Siesta is reading its input from file INPUT_DEBUG

reinit: -----------------------------------------------------------------------
reinit: System Name: liquid_D2O_128
reinit: -----------------------------------------------------------------------
reinit: System Label: D2O_128                                                     
reinit: -----------------------------------------------------------------------

initatom: Reading input for the pseudopotentials and atomic orbitals ----------
Species number:   1 Atomic number:    8 Label: O
Species number:   2 Atomic number:    1 Label: H
 
Ground state valence configuration:   2s02  2p04
Reading pseudopotential information in formatted form from O.psf

Valence configuration for pseudopotential generation:
2s( 2.00) rc: 1.14
2p( 4.00) rc: 1.14
3d( 0.00) rc: 1.14
4f( 0.00) rc: 1.14
Ground state valence configuration:   1s01
Reading pseudopotential information in formatted form from H.psf

Valence configuration for pseudopotential generation:
1s( 0.60) rc: 1.25
2p( 0.00) rc: 1.25
3d( 0.00) rc: 1.25
4f( 0.00) rc: 1.25
For O, standard SIESTA heuristics set lmxkb to 3
 (one more than the basis l, including polarization orbitals).
Use PS.lmax or PS.KBprojectors blocks to override.
For H, standard SIESTA heuristics set lmxkb to 2
 (one more than the basis l, including polarization orbitals).
Use PS.lmax or PS.KBprojectors blocks to override.

<basis_specs>
===============================================================================
O                    Z=   8    Mass=  16.000        Charge=-0.24233    
Lmxo=2 Lmxkb= 3    BasisType=split      Semic=F
L=0  Nsemic=0  Cnfigmx=2
          n=1  nzeta=2  polorb=0
            splnorm:   0.15000    
               vcte:    23.361    
               rinn:    3.3972    
               qcoe:    0.0000    
               qyuk:    0.0000    
               qwid:   0.10000E-01
                rcs:    4.5077      2.6407    
            lambdas:    1.0000      1.0000    
L=1  Nsemic=0  Cnfigmx=2
          n=1  nzeta=2  polorb=0
            splnorm:   0.15000    
               vcte:    2.7833    
               rinn:    5.1425    
               qcoe:    0.0000    
               qyuk:    0.0000    
               qwid:   0.10000E-01
                rcs:    6.1500      2.5936    
            lambdas:    1.0000      1.0000    
L=2  Nsemic=0  Cnfigmx=3
          n=1  nzeta=1  polorb=0
            splnorm:   0.15000    
               vcte:    63.982    
               rinn:   0.16104    
               qcoe:    0.0000    
               qyuk:    0.0000    
               qwid:   0.10000E-01
                rcs:    3.5440    
            lambdas:    1.0000    
-------------------------------------------------------------------------------
L=0  Nkbl=1  erefs: 0.17977+309
L=1  Nkbl=1  erefs: 0.17977+309
L=2  Nkbl=1  erefs: 0.17977+309
L=3  Nkbl=1  erefs: 0.17977+309
===============================================================================
</basis_specs>

atom: Called for O                     (Z =   8)

read_vps: Pseudopotential generation method:
read_vps: ATM3      Troullier-Martins                       
Total valence charge:    6.00000

read_vps: Pseudopotential includes a core correction:
read_vps: Pseudo-core for xc-correction

xc_check: Exchange-correlation functional:
xc_check: GGA Perdew, Burke & Ernzerhof 1996
V l=0 = -2*Zval/r beyond r=  1.1278
V l=1 = -2*Zval/r beyond r=  1.1278
V l=2 = -2*Zval/r beyond r=  1.1278
V l=3 = -2*Zval/r beyond r=  1.1278
All V_l potentials equal beyond r=  1.1278
This should be close to max(r_c) in ps generation
All pots = -2*Zval/r beyond r=  1.1278

VLOCAL1: 99.0% of the norm of Vloc inside     34.126 Ry
VLOCAL1: 99.9% of the norm of Vloc inside     77.774 Ry
atom: Maximum radius for 4*pi*r*r*local-pseudopot. charge    1.37759
atom: Maximum radius for r*vlocal+2*Zval:    1.18566
GHOST: No ghost state for L =  0
GHOST: No ghost state for L =  1
GHOST: No ghost state for L =  2
GHOST: No ghost state for L =  3

KBgen: Kleinman-Bylander projectors: 
   l= 0   rc=  1.262145   el= -1.757696   Ekb=  9.253654   kbcos=  0.328369
   l= 1   rc=  1.262145   el= -0.664256   Ekb= -7.897175   kbcos= -0.393093
   l= 2   rc=  1.343567   el=  0.002031   Ekb= -1.922379   kbcos= -0.003517
   l= 3   rc=  1.394919   el=  0.003153   Ekb= -0.738278   kbcos= -0.000358

KBgen: Total number of  Kleinman-Bylander projectors:   16
atom: -------------------------------------------------------------------------

atom: SANKEY-TYPE ORBITALS:
atom: Selected multiple-zeta basis: split     

atom: basis set generated (by rescaling the valence charge)
atom: for an anion of charge  -0.2423

SPLIT: Orbitals with angular momentum L= 0

SPLIT: Basis orbitals for state 2s

   izeta = 1
                 lambda =    1.000000
                     rc =    4.574469
                 energy =   -1.754694
                kinetic =    1.490893
    potential(screened) =   -3.245588
       potential(ionic) =  -11.054474

   izeta = 2
                 rmatch =    2.639108
              splitnorm =    0.147036
                 energy =   -1.549986
                kinetic =    2.329570
    potential(screened) =   -3.879556
       potential(ionic) =  -12.328390

SPLIT: Orbitals with angular momentum L= 1

SPLIT: Basis orbitals for state 2p

   izeta = 1
                 lambda =    1.000000
                     rc =    6.174996
                 energy =   -0.657397
                kinetic =    4.283704
    potential(screened) =   -4.941101
       potential(ionic) =  -12.288569

   izeta = 2
                 rmatch =    2.639108
              splitnorm =    0.214885
                 energy =   -0.410839
                kinetic =    7.128014
    potential(screened) =   -7.538853
       potential(ionic) =  -16.113011

SPLIT: Orbitals with angular momentum L= 2

SPLIT: Basis orbitals for state 3d

   izeta = 1
                 lambda =    1.000000
                     rc =    3.562532
                 energy =    3.658838
                kinetic =    6.488135
    potential(screened) =   -2.829297
       potential(ionic) =  -10.001422
atom: Total number of Sankey-type orbitals: 13

atm_pop: Valence configuration (for local Pseudopot. screening):
 2s( 2.00)                                                            
 2p( 4.00)                                                            
 3d( 0.00)                                                            
Vna: chval, zval:    6.00000   6.00000

Vna:  Cut-off radius for the neutral-atom potential:   6.174996
comcore: Pseudo-core radius Rcore=  1.377587

atom: _________________________________________________________________________

<basis_specs>
===============================================================================
H                    Z=   1    Mass=  1.0100        Charge= 0.46527    
Lmxo=1 Lmxkb= 2    BasisType=split      Semic=F
L=0  Nsemic=0  Cnfigmx=1
          n=1  nzeta=2  polorb=0
            splnorm:   0.15000    
               vcte:    99.931    
               rinn:    2.5993    
               qcoe:    0.0000    
               qyuk:    0.0000    
               qwid:   0.10000E-01
                rcs:    4.2036      1.8446    
            lambdas:    1.0000      1.0000    
L=1  Nsemic=0  Cnfigmx=2
          n=1  nzeta=1  polorb=0
            splnorm:   0.15000    
               vcte:    24.565    
               rinn:    2.2023    
               qcoe:    0.0000    
               qyuk:    0.0000    
               qwid:   0.10000E-01
                rcs:    3.5282    
            lambdas:    1.0000    
-------------------------------------------------------------------------------
L=0  Nkbl=1  erefs: 0.17977+309
L=1  Nkbl=1  erefs: 0.17977+309
L=2  Nkbl=1  erefs: 0.17977+309
===============================================================================
</basis_specs>

atom: Called for H                     (Z =   1)

read_vps: Pseudopotential generation method:
read_vps: ATM 3.2.2 Troullier-Martins                       
Total valence charge:    0.60000

atom: Pseudopotential generated from an ionic configuration
atom: with net charge 0.40

xc_check: Exchange-correlation functional:
xc_check: GGA Perdew, Burke & Ernzerhof 1996
xc_check: WARNING: Pseudopotential generated with GGA revPBE functional
V l=0 = -2*Zval/r beyond r=  1.2343
V l=1 = -2*Zval/r beyond r=  1.2189
V l=2 = -2*Zval/r beyond r=  1.2189
All V_l potentials equal beyond r=  1.2343
This should be close to max(r_c) in ps generation
All pots = -2*Zval/r beyond r=  1.2343

VLOCAL1: 99.0% of the norm of Vloc inside     28.493 Ry
VLOCAL1: 99.9% of the norm of Vloc inside     64.935 Ry
atom: Maximum radius for 4*pi*r*r*local-pseudopot. charge    1.45251
atom: Maximum radius for r*vlocal+2*Zval:    1.21892
GHOST: No ghost state for L =  0
GHOST: No ghost state for L =  1
GHOST: No ghost state for L =  2

KBgen: Kleinman-Bylander projectors: 
   l= 0   rc=  1.364359   el= -0.835481   Ekb= -2.050473   kbcos= -0.374935
   l= 1   rc=  1.434438   el= -0.083696   Ekb= -0.439790   kbcos= -0.040392
   l= 2   rc=  1.470814   el= -0.018512   Ekb= -0.135383   kbcos= -0.004767

KBgen: Total number of  Kleinman-Bylander projectors:    9
atom: -------------------------------------------------------------------------

atom: SANKEY-TYPE ORBITALS:
atom: Selected multiple-zeta basis: split     

atom: basis set generated (by rescaling the valence charge)
atom: for a cation of charge   0.4653

SPLIT: Orbitals with angular momentum L= 0

SPLIT: Basis orbitals for state 1s

   izeta = 1
                 lambda =    1.000000
                     rc =    4.260636
                 energy =   -0.844786
                kinetic =    1.360018
    potential(screened) =   -2.204804
       potential(ionic) =   -2.290935

   izeta = 2
                 rmatch =    1.865767
              splitnorm =    0.575404
                 energy =    0.510436
                kinetic =    4.363202
    potential(screened) =   -3.852766
       potential(ionic) =   -3.849391

SPLIT: Orbitals with angular momentum L= 1

SPLIT: Basis orbitals for state 2p

   izeta = 1
                 lambda =    1.000000
                     rc =    3.576223
                 energy =    0.852340
                kinetic =    2.004908
    potential(screened) =   -1.152567
       potential(ionic) =   -1.298457
atom: Total number of Sankey-type orbitals:  5

atm_pop: Valence configuration (for local Pseudopot. screening):
 1s( 1.00)                                                            
 2p( 0.00)                                                            
Vna: chval, zval:    1.00000   1.00000

Vna:  Cut-off radius for the neutral-atom potential:   4.260636

atom: _________________________________________________________________________

prinput: Basis input ----------------------------------------------------------

PAO.BasisType split     

%block ChemicalSpeciesLabel
    1    8 O                       # Species index, atomic number, species label
    2    1 H                       # Species index, atomic number, species label
%endblock ChemicalSpeciesLabel

%block PAO.Basis                 # Define Basis set
O                     3  -0.242            # Label, l-shells, ionic net charge
 n=2   0   2                         # n, l, Nzeta 
   4.574      2.639   
   1.000      1.000   
 n=2   1   2                         # n, l, Nzeta 
   6.175      2.639   
   1.000      1.000   
 n=3   2   1                         # n, l, Nzeta 
   3.563   
   1.000   
H                     2   0.465            # Label, l-shells, ionic net charge
 n=1   0   2                         # n, l, Nzeta 
   4.261      1.866   
   1.000      1.000   
 n=2   1   1                         # n, l, Nzeta 
   3.576   
   1.000   
%endblock PAO.Basis

prinput: ----------------------------------------------------------------------

coor:   Atomic-coordinates input format  =     Cartesian coordinates
coor:                                          (in Angstroms)

siesta: Atomic coordinates (Bohr) and species
siesta:     26.49397   0.45353   4.66763  1        1
siesta:     26.96640   1.47399   3.25033  2        2
siesta:     25.77587   1.62517   5.85815  2        3
siesta:     20.33346  14.00288  21.97752  1        4
siesta:     21.22163  14.47531  20.46574  2        5
siesta:     18.59491  14.07847  21.50509  2        6
siesta:     11.07380   3.60938  13.00132  1        7
siesta:     11.41395   5.36682  12.83125  2        8
siesta:     11.58403   2.89128  11.43285  2        9
siesta:     14.09736  13.00132  25.01998  1       10
siesta:     14.15405  13.00132  26.83412  2       11
siesta:     13.53044  11.33836  24.56645  2       12
siesta:     17.17762   8.63605  20.03110  1       13
siesta:     16.83747   9.24076  18.34925  2       14
siesta:     18.95396   8.86282  20.23897  2       15
siesta:     22.75231   1.79524   9.37305  1       16
siesta:     21.27832   2.30547   8.48487  2       17
siesta:     23.45151   3.32592  10.03445  2       18
siesta:     27.17427  25.60580  26.85302  1       19
siesta:     28.61046  25.54911  27.94906  2       20
siesta:     27.57112  24.43417  25.53021  2       21
siesta:     24.09402  25.03888   4.02512  1       22
siesta:     23.67828  24.96329   2.26767  2       23
siesta:     24.75542  26.70184   4.28968  2       24
siesta:     28.81833  16.93195   4.57314  1       25
siesta:     29.17738  18.65160   4.13850  2       26
siesta:     29.02620  16.00599   3.04246  2       27
siesta:      3.17474   7.14317  26.24831  1       28
siesta:      1.79524   7.97465  25.45462  2       29
siesta:      4.62983   8.12583  25.81367  2       30
siesta:      1.56847   2.39995  27.68450  1       31
siesta:      0.15118   1.90862  26.68294  2       32
siesta:      2.22988   3.85504  26.85302  2       33
siesta:     21.97752   5.87705  29.00731  1       34
siesta:     21.33502   4.25189  28.51598  2       35
siesta:     21.18384   7.02978  27.87347  2       36
siesta:      2.81569  25.05778  28.47818  1       37
siesta:      3.53379  25.98374  29.85768  2       38
siesta:      3.38261  23.35702  28.74275  2       39
siesta:      2.05980   4.45976  19.10514  1       40
siesta:      0.77479   4.66763  17.83902  2       41
siesta:      3.36371   5.61249  18.61381  2       42
siesta:      9.12738  25.19006  29.38525  1       43
siesta:     10.37460  24.79322  28.13803  2       44
siesta:      7.54001  24.81211  28.59157  2       45
siesta:     20.99487   3.64717  16.91306  1       46
siesta:     19.33191   3.02356  17.30990  2       47
siesta:     21.78855   3.83615  18.51932  2       48
siesta:      2.04091  15.04223  21.58068  1       49
siesta:      1.11494  13.51155  21.42950  2       50
siesta:      2.47554  15.13671  23.33813  2       51
siesta:     16.47842   9.58092   2.28657  1       52
siesta:     17.95241   9.54312   3.34482  2       53
siesta:     16.74298  10.97931   1.19053  2       54
siesta:     25.90816   8.05024   4.72432  1       55
siesta:     26.00264   7.02978   6.21720  2       56
siesta:     26.55066   6.99199   3.40151  2       57
siesta:     10.56357  15.04223  21.08935  1       58
siesta:     12.32102  14.72097  21.37281  2       59
siesta:      9.80768  13.41706  21.08935  2       60
siesta:      7.97465  10.88483  12.77455  1       61
siesta:      7.02978   9.93996  11.56513  2       62
siesta:      7.36993  10.33681  14.38082  2       63
siesta:      2.30547  13.43596   7.38883  1       64
siesta:      1.58737  14.41862   6.04713  2       65
siesta:      2.83459  14.64538   8.61715  2       66
siesta:     12.66117   3.38261   7.67229  1       67
siesta:     12.30212   2.05980   6.50066  2       68
siesta:     12.49109   4.91329   6.70853  2       69
siesta:     26.55066   6.27389   9.44863  1       70
siesta:     25.43572   7.59670   9.95886  2       71
siesta:     28.19473   6.99199   9.59981  2       72
siesta:      7.89906   4.51645   3.28812  1       73
siesta:      8.86282   3.19364   4.06291  2       74
siesta:      6.29279   3.74166   2.91018  2       75
siesta:     28.85613  22.79011   3.74166  1       76
siesta:     27.43883  23.79166   4.25189  2       77
siesta:     30.29232  23.82946   4.08181  2       78
siesta:     15.38238  23.18695   9.52422  1       79
siesta:     16.47842  22.63893  10.84703  2       80
siesta:     16.47842  23.82946   8.23921  2       81
siesta:     23.64048  15.23120  17.51777  1       82
siesta:     24.35858  13.64383  17.08313  2       83
siesta:     24.45307  16.42173  16.42173  2       84
siesta:     23.45151   9.97776  10.90372  1       85
siesta:     21.73186   9.46753  11.13049  2       86
siesta:     23.39482  11.77300  11.01711  2       87
siesta:     11.01711   5.66918  18.25476  1       88
siesta:     11.41395   5.40462  16.49732  2       89
siesta:     11.09270   4.02512  18.97286  2       90
siesta:     22.35547  25.05778  19.72875  1       91
siesta:     21.20274  24.71763  21.08935  2       92
siesta:     23.43261  23.62159  19.67206  2       93
siesta:     21.76965  16.79967  27.74119  1       94
siesta:     21.46730  17.95241  26.38059  2       95
siesta:     22.80900  17.72564  28.89392  2       96
siesta:     21.59958  19.29411  23.22474  1       97
siesta:     20.42795  18.14138  22.44996  2       98
siesta:     23.22474  18.50043  22.99798  2       99
siesta:     20.22008   7.36993   4.81880  1      100
siesta:     21.71296   8.22031   5.40462  2      101
siesta:     20.71141   6.61404   3.25033  2      102
siesta:     16.42173   1.88973   2.19208  1      103
siesta:     15.79812   3.17474   1.07714  2      104
siesta:     14.94774   1.09604   2.85349  2      105
siesta:      8.46598  10.63916   3.53379  1      106
siesta:      9.24076  10.97931   1.94642  2      107
siesta:      8.84392  12.09425   4.55424  2      108
siesta:     17.10203  15.02333  29.66871  1      109
siesta:     15.89260  16.04378  28.76164  2      110
siesta:     18.70830  15.53355  29.02620  2      111
siesta:      5.78256   4.19519  12.35881  1      112
siesta:      4.89439   2.60782  12.32102  2      113
siesta:      7.48332   3.74166  12.73676  2      114
siesta:     14.04067  22.35547  16.95085  1      115
siesta:     13.34147  20.74920  16.49732  2      116
siesta:     14.17295  23.24364  15.38238  2      117
siesta:      8.42818  16.00599  26.19161  1      118
siesta:      6.76522  15.32568  26.45618  2      119
siesta:      9.01400  15.15561  24.69873  2      120
siesta:     -0.20787  22.35547  23.26254  1      121
siesta:      1.51178  22.52554  22.77121  2      122
siesta:     -1.02045  21.63737  21.82635  2      123
siesta:      1.49288   8.88172   9.33525  1      124
siesta:      1.92752  10.54468   8.76833  2      125
siesta:      3.00467   7.91796   9.16518  2      126
siesta:      4.81880  22.56334   8.10693  1      127
siesta:      4.83770  20.78700   7.78567  2      128
siesta:      5.78256  23.26254   6.74632  2      129
siesta:     16.72408   3.28812  20.10669  1      130
siesta:     16.62960   5.08337  20.06890  2      131
siesta:     15.02333   2.72121  19.86103  2      132
siesta:     29.91438  14.09736  14.75877  1      133
siesta:     29.08290  12.54779  15.13671  2      134
siesta:     28.61046  15.34458  14.85325  2      135
siesta:      8.18252  27.43883  18.78389  1      136
siesta:      6.40617  27.60891  19.02955  2      137
siesta:      8.42818  25.71918  18.31145  2      138
siesta:     27.77899   6.23610  21.73186  1      139
siesta:     29.21518   5.57469  20.86258  2      140
siesta:     27.11758   4.83770  22.65783  2      141
siesta:     29.68761  13.09581   1.07714  1      142
siesta:     28.15693  12.39661   0.39684  2      143
siesta:     30.65137  11.65961   1.58737  2      144
siesta:     19.40750  24.11291  24.01843  1      145
siesta:     17.87682  24.58535  23.16805  2      146
siesta:     19.27521  22.33657  24.22630  2      147
siesta:     23.75387  12.45330   3.68497  1      148
siesta:     23.79166  13.81390   4.87550  2      149
siesta:     24.67983  11.13049   4.47865  2      150
siesta:     22.29878  21.18384   9.01400  1      151
siesta:     20.93817  20.82479  10.16673  2      152
siesta:     21.97752  22.88459   8.46598  2      153
siesta:      6.85971  10.67696  25.98374  1      154
siesta:      7.23765  10.31791  24.26409  2      155
siesta:      8.06913   9.71320  26.92861  2      156
siesta:     13.13360  18.44373  28.89392  1      157
siesta:     11.50844  18.34925  28.11914  2      158
siesta:     12.98242  19.76654  30.12225  2      159
siesta:     26.19161   2.75900  25.09557  1      160
siesta:     24.45307   3.23143  24.90660  2      161
siesta:     26.49397   1.62517  23.71607  2      162
siesta:      8.46598  22.33657   4.53534  1      163
siesta:      7.86126  20.80589   3.76056  2      164
siesta:      8.22031  23.60269   3.26923  2      165
siesta:     25.37903  10.71475  16.27055  1      166
siesta:     24.45307   9.67540  17.42328  2      167
siesta:     24.81211  10.18563  14.62649  2      168
siesta:     20.50354   0.94486  23.43261  1      169
siesta:     19.97441   1.02045  25.15226  2      170
siesta:     19.10514   1.58737  22.48775  2      171
siesta:     14.02177   7.88016  24.11291  1      172
siesta:     15.04223   8.50377  22.75231  2      173
siesta:     13.36037   6.31169  23.50820  2      174
siesta:     11.71631  17.83902  16.93195  1      175
siesta:     10.96042  17.36659  18.51932  2      176
siesta:     10.60137  17.15872  15.68473  2      177
siesta:     17.65005   4.08181   8.08803  1      178
siesta:     17.97130   5.32903   6.80302  2      179
siesta:     15.85481   4.08181   8.25811  2      180
siesta:      6.51956  17.83902   2.72121  1      181
siesta:      5.65028  16.28945   3.04246  2      182
siesta:      5.97154  18.33035   1.07714  2      183
siesta:     18.57602  20.69251  13.19029  1      184
siesta:     18.25476  19.50198  14.51310  2      185
siesta:     18.57602  22.29878  14.02177  2      186
siesta:      3.42041  26.90971   4.25189  1      187
siesta:      4.38417  28.30811   4.89439  2      188
siesta:      2.04091  26.73964   5.40462  2      189
siesta:     29.19628  28.76164  14.77766  1      190
siesta:     28.13803  27.34435  14.49421  2      191
siesta:     30.21673  28.30811  16.19496  2      192
siesta:     12.73676  26.24831  13.19029  1      193
siesta:     13.60603  27.83568  13.11470  2      194
siesta:     13.03912  25.49242  11.56513  2      195
siesta:     26.26720  24.86881  12.83125  1      196
siesta:     24.62314  24.47196  12.18874  2      197
siesta:     27.36325  23.71607  11.96197  2      198
siesta:     11.24387  13.56824  29.70651  1      199
siesta:     12.50999  14.85325  29.91438  2      200
siesta:     10.05335  14.30523  28.55377  2      201
siesta:     22.58224  24.33968  28.49708  1      202
siesta:     21.37281  24.35858  27.13648  2      203
siesta:     24.15071  24.77432  27.70340  2      204
siesta:     11.82969   0.90707  20.59802  1      205
siesta:     11.30057   0.96376  22.33657  2      206
siesta:     10.73365  -0.32125  19.82323  2      207
siesta:      2.66451   4.34637   3.57158  1      208
siesta:      2.34326   6.10382   3.72276  2      209
siesta:      2.38106   3.96843   1.83304  2      210
siesta:     28.96951  18.34925  27.59001  1      211
siesta:     28.04355  18.51932  26.04044  2      212
siesta:     27.76009  18.67050  28.87503  2      213
siesta:      7.76678  25.64359  11.73520  1      214
siesta:      9.16518  26.32390  12.64227  2      215
siesta:      8.16362  23.88615  11.54623  2      216
siesta:     21.33502  26.60735  10.48798  1      217
siesta:     21.37281  26.66405  12.28322  2      218
siesta:     22.22319  28.08134   9.95886  2      219
siesta:      4.83770  10.43129  17.66895  1      220
siesta:      4.30858  12.15094  17.70674  2      221
siesta:      3.45820   9.54312  16.89416  2      222
siesta:      6.84081   7.82347   8.69274  1      223
siesta:      6.55735   6.33059   9.65650  2      224
siesta:      7.40773   7.21876   7.08648  2      225
siesta:     17.04534  10.56357  15.36348  1      226
siesta:     18.46263   9.69430  14.64538  2      227
siesta:     15.62804   9.99666  14.39972  2      228
siesta:     26.43728  28.11914  21.73186  1      229
siesta:     26.39948  27.74119  23.48931  2      230
siesta:     24.92550  27.36325  21.07045  2      231
siesta:     20.40905   1.05825  28.81833  1      232
siesta:     19.19963   1.53068  30.08445  2      233
siesta:     20.54133  -0.73699  28.96951  2      234
siesta:      9.78879  14.73987   6.16051  1      235
siesta:      9.46753  16.02488   4.93219  2      236
siesta:     11.56513  14.89105   6.50066  2      237
siesta:     24.49086  19.29411   1.28501  1      238
siesta:     23.92394  18.42484   2.77790  2      239
siesta:     24.58535  21.03266   1.79524  2      240
siesta:     24.37748  16.51621   7.16206  1      241
siesta:     26.07823  16.74298   6.55735  2      242
siesta:     23.71607  18.19807   7.31324  2      243
siesta:     15.15561  25.53021  21.63737  1      244
siesta:     14.75877  27.28766  21.35391  2      245
siesta:     15.21230  24.81211  19.97441  2      246
siesta:      3.26923  14.89105  26.55066  1      247
siesta:      2.68341  13.19029  26.58846  2      248
siesta:      2.11649  15.79812  27.57112  2      249
siesta:      0.86927   7.99354  15.09892  1      250
siesta:      1.20943   8.73054  13.47375  2      251
siesta:     -0.83148   7.44552  15.00443  2      252
siesta:      9.03289   6.42507  28.25142  1      253
siesta:      8.29590   5.99043  29.83879  2      254
siesta:     10.80924   6.21720  28.49708  2      255
siesta:     29.17738  11.18718  24.15071  1      256
siesta:     28.47818   9.82658  23.18695  2      257
siesta:     27.98686  11.47064  25.47352  2      258
siesta:     10.88483  26.15382   7.69119  1      259
siesta:     10.60137  24.39637   7.40773  2      260
siesta:      9.88327  26.53177   9.16518  2      261
siesta:     19.74765   9.88327  25.88926  1      262
siesta:     19.06734  11.31946  25.01998  2      263
siesta:     21.03266  10.56357  26.94751  2      264
siesta:      4.00622  20.01221  28.44039  1      265
siesta:      4.96998  18.99176  27.28766  2      266
siesta:      2.28657  19.70985  27.98686  2      267
siesta:     18.40594  24.47196   5.36682  1      268
siesta:     20.08780  23.82946   5.21565  2      269
siesta:     18.10358  25.32234   3.77945  2      270
siesta:     26.62625  18.10358  14.28634  1      271
siesta:     27.81678  19.29411  13.60603  2      272
siesta:     25.62470  17.61225  12.86904  2      273
siesta:      5.17785  28.87503  24.90660  1      274
siesta:      3.93063  28.28921  23.73497  2      275
siesta:      4.21409  29.61202  26.24831  2      276
siesta:      2.94797  20.65471  17.06423  1      277
siesta:      3.91173  21.33502  18.42484  2      278
siesta:      3.55269  18.95396  16.87526  2      279
siesta:      0.88817  21.37281  12.16984  1      280
siesta:      1.90862  22.29878  10.99821  2      281
siesta:      1.70075  21.61848  13.75721  2      282
siesta:      3.72276  17.61225  10.11004  1      283
siesta:      5.17785  17.36659  11.16829  2      284
siesta:      2.41885  18.14138  11.22498  2      285
siesta:      9.42974   2.58893  24.71763  1      286
siesta:      8.08803   1.37950  24.75542  2      287
siesta:      8.88172   3.89284  25.85146  2      288
siesta:      8.86282  20.69251  11.11159  1      289
siesta:      7.69119  20.69251   9.75099  2      290
siesta:      8.65495  19.04845  11.86748  2      291
siesta:     12.32102   8.03134   5.51800  1      292
siesta:     13.51155   8.27700   4.17630  2      293
siesta:     10.84703   8.91951   4.95108  2      294
siesta:      9.01400  20.67361  22.14760  1      295
siesta:      8.65495  21.80745  20.78700  2      296
siesta:      9.16518  19.04845  21.35391  2      297
siesta:     16.93195   0.52912  12.71786  1      298
siesta:     16.70519   2.02201  11.71631  2      299
siesta:     18.00910  -0.52912  11.71631  2      300
siesta:      9.27856   9.59981  20.93817  1      301
siesta:      7.55891   9.84548  20.40905  2      302
siesta:      9.76989   8.05024  20.12559  2      303
siesta:      3.15584   9.58092   3.38261  1      304
siesta:      2.66451   9.90217   5.10226  2      305
siesta:      4.85660  10.20453   3.26923  2      306
siesta:     13.85170  21.58068   4.04402  1      307
siesta:     15.25010  22.33657   4.87550  2      308
siesta:     12.39661  22.39326   4.76211  2      309
siesta:     26.02154  17.00754  21.80745  1      310
siesta:     27.62781  16.21386  22.09091  2      311
siesta:     25.41683  16.27055  20.27677  2      312
siesta:     26.58846  21.86414  18.25476  1      313
siesta:     26.70184  20.29567  17.36659  2      314
siesta:     26.55066  23.11136  16.95085  2      315
siesta:      2.21098  28.74275  20.10669  1      316
siesta:      0.43464  28.55377  20.44684  2      317
siesta:      2.49444  30.51909  20.23897  2      318
siesta:     11.73520  23.28144  25.60580  1      319
siesta:     10.75255  22.07201  24.67983  2      320
siesta:     12.88794  23.98063  24.37748  2      321
siesta:     25.22785  11.58403  28.17583  1      322
siesta:     24.62314  13.26588  28.00575  2      323
siesta:     24.45307  10.96042  29.66871  2      324
siesta:     27.00420   3.77945  16.32724  1      325
siesta:     27.98686   2.72121  15.25010  2      326
siesta:     25.32234   3.70386  15.64694  2      327
siesta:     14.30523   6.25500  28.83723  1      328
siesta:     15.19340   7.52111  29.76320  2      329
siesta:     14.15405   6.93530  27.17427  2      330
siesta:      4.93219  24.26409  21.05156  1      331
siesta:      3.85504  25.70029  20.76810  2      332
siesta:      5.95264  24.73652  22.44996  2      333
siesta:     17.72564  18.08469   4.06291  1      334
siesta:     17.53667  16.98864   2.62672  2      335
siesta:     16.45952  19.35080   3.83615  2      336
siesta:     18.06579  14.68318  12.85014  1      337
siesta:     17.47997  13.43596  14.02177  2      338
siesta:     17.02644  14.45641  11.37616  2      339
siesta:      5.61249   1.24722   6.87861  1      340
siesta:      4.89439   2.81569   6.31169  2      341
siesta:      4.72432   0.85038   8.39039  2      342
siesta:      4.34637  15.85481  16.96975  1      343
siesta:      3.70386  15.83591  18.67050  2      344
siesta:      3.04246  15.13671  15.96819  2      345
siesta:     12.45330   8.97620  12.33992  1      346
siesta:     10.84703   9.73209  12.66117  2      347
siesta:     12.69896   9.18407  10.56357  2      348
siesta:     22.37437   9.14628  19.86103  1      349
siesta:     22.43106  10.37460  21.20274  2      350
siesta:     23.43261   7.80457  20.42795  2      351
siesta:     14.62649  15.96819   8.40928  1      352
siesta:     13.09581  16.79967   8.90061  2      353
siesta:     15.38238  17.08313   7.21876  2      354
siesta:      0.01890  27.23096   8.12583  1      355
siesta:      0.94486  28.17583   9.35415  2      356
siesta:     -0.96376  28.47818   7.23765  2      357
siesta:      8.82502  22.63893  17.02644  1      358
siesta:      8.48487  22.97908  15.28789  2      359
siesta:     10.60137  22.86570  17.19651  2      360
siesta:     15.81701  10.62027   8.01244  1      361
siesta:     14.58869   9.95886   6.85971  2      362
siesta:     15.81701  12.39661   7.72898  2      363
siesta:     11.50844  29.47974   4.15740  1      364
siesta:     10.97931  28.78054   2.57003  2      365
siesta:     11.01711  28.25142   5.38572  2      366
siesta:     19.38860  25.56800  15.51466  1      367
siesta:     20.18228  25.39793  17.12093  2      368
siesta:     19.12404  27.34435  15.32568  2      369
siesta:     23.26254  15.04223  11.75410  1      370
siesta:     21.56178  15.17451  12.32102  2      371
siesta:     23.16805  15.30679   9.95886  2      372
siesta:     19.10514   7.84237  10.99821  1      373
siesta:     18.67050   6.40617   9.97776  2      374
siesta:     18.16028   9.20297  10.28011  2      375
siesta:     26.62625   4.04402   1.28501  1      376
siesta:     24.92550   4.08181   0.66140  2      377
siesta:     27.60891   3.32592  -0.05669  2      378
siesta:      3.32592  29.34746  11.67851  1      379
siesta:      4.64873  28.19473  12.15094  2      380
siesta:      1.88973  28.81833  12.64227  2      381
siesta:      8.10693  16.10047  13.19029  1      382
siesta:      6.97309  16.51621  14.53200  2      383
siesta:      8.06913  14.28634  13.13360  2      384

siesta: System type = bulk      

initatomlists: Number of atoms, orbitals, and projectors:    384  2944  4352

siesta: ******************** Simulation parameters ****************************
siesta:
siesta: The following are some of the parameters of the simulation.
siesta: A complete list of the parameters used, including default values,
siesta: can be found in file out.fdf
siesta:
redata: Non-Collinear-spin run           =     F
redata: SpinPolarized (Up/Down) run      =     F
redata: Number of spin components        =     1
redata: Long output                      =     F
redata: Number of Atomic Species         =        2
redata: Charge density info will appear in .RHO file
redata: Write Mulliken Pop.              =     NO
redata: Mesh Cutoff                      =   150.0000  Ry
redata: Net charge of the system         =     0.0000 |e|
redata: Min. number of SCF Iter          =        0
redata: Max. number of SCF Iter          =       50
redata: Mix DM or H after convergence    =     F
redata: Recompute H after scf cycle      =     F
redata: Performing Pulay mixing using    =     3 iterations
redata: Mix DM in first SCF step ?       =     F
redata: Write Pulay info on disk?        =     F
redata: Discard 1st Pulay DM after  kick =     F
redata: New DM Mixing Weight             =     0.3000
redata: New DM Occupancy tolerance       = 0.000000000001
redata: No kicks to SCF
redata: DM Mixing Weight for Kicks       =     0.5000
redata: DM Tolerance for SCF             =     0.000100
redata: Require (free) Energy convergence in SCF =     F
redata: DM (free)Energy tolerance for SCF =     0.000010 eV
redata: Require Harris convergence for SCF =     F
redata: DM Harris energy tolerance for SCF =     0.000010 eV
redata: Using Saved Data (generic)   =     F
redata: Use continuation files for DM    =     F
redata: Neglect nonoverlap interactions  =     F
redata: Method of Calculation            =     QETSc
redata: Fix the spin of the system       =     F
redata: Dynamics option                  =     Single-point calculation
redata: ***********************************************************************
Total number of electrons:  1024.000000
Total ionic charge:  1024.000000

* ProcessorY, Blocksize:    4  92


* Orbital distribution balance (max,min):    92    92

 Kpoints in:  1 . Kpoints trimmed:  1

siesta: k-grid: Number of k-points =     1
siesta: k-grid: Cutoff (effective) =     7.823 Ang
siesta: k-grid: Supercell and displacements
siesta: k-grid:    1   0   0      0.000
siesta: k-grid:    0   1   0      0.000
siesta: k-grid:    0   0   1      0.000

                     ====================================
                        Single-point calculation
                     ====================================

outcell: Unit cell vectors (Ang):
       15.646046    0.000000    0.000000
        0.000000   15.646046    0.000000
        0.000000    0.000000   15.646046

outcell: Cell vector modules (Ang)   :   15.646046   15.646046   15.646046
outcell: Cell angles (23,13,12) (deg):     90.0000     90.0000     90.0000
outcell: Cell volume (Ang**3)        :   3830.1327
New_DM. Step:     1
Initializing Density Matrix...
New grid distribution:   1
           1       1:   60    1:   15    1:    8
           2       1:   60    1:   15    9:   16
           3       1:   60    1:   15   17:   24
           4       1:   60    1:   15   25:   32
           5       1:   60    1:   15   33:   39
           6       1:   60    1:   15   40:   46
           7       1:   60    1:   15   47:   53
           8       1:   60    1:   15   54:   60
           9       1:   60   16:   30    1:    8
          10       1:   60   16:   30    9:   16
          11       1:   60   16:   30   17:   24
          12       1:   60   16:   30   25:   32
          13       1:   60   16:   30   33:   39
          14       1:   60   16:   30   40:   46
          15       1:   60   16:   30   47:   53
          16       1:   60   16:   30   54:   60
          17       1:   60   31:   45    1:    8
          18       1:   60   31:   45    9:   16
          19       1:   60   31:   45   17:   24
          20       1:   60   31:   45   25:   32
          21       1:   60   31:   45   33:   39
          22       1:   60   31:   45   40:   46
          23       1:   60   31:   45   47:   53
          24       1:   60   31:   45   54:   60
          25       1:   60   46:   60    1:    8
          26       1:   60   46:   60    9:   16
          27       1:   60   46:   60   17:   24
          28       1:   60   46:   60   25:   32
          29       1:   60   46:   60   33:   39
          30       1:   60   46:   60   40:   46
          31       1:   60   46:   60   47:   53
          32       1:   60   46:   60   54:   60

InitMesh: MESH =   120 x   120 x   120 =     1728000
InitMesh: (bp) =    60 x    60 x    60 =      216000
InitMesh: Mesh cutoff (required, used) =   150.000   162.575 Ry
ExtMesh (bp) on 0 =   112 x    67 x    60 =      450240
New grid distribution:   2
           1      30:   60   16:   29    1:   14
           2       1:   29    1:   15   14:   28
           3      30:   60    1:   16   15:   28
           4      31:   60    1:   17   29:   44
           5       1:   30    1:   16   29:   46
           6      30:   60    1:   15    1:   14
           7       1:   30    1:   17   47:   60
           8       1:   29    1:   15    1:   13
           9       1:   28   30:   45    1:   15
          10       1:   29   16:   29   14:   28
          11       1:   28   30:   46   16:   28
          12       1:   30   17:   30   29:   46
          13      31:   60   18:   30   29:   44
          14      30:   60   17:   29   15:   28
          15      31:   60    1:   16   45:   60
          16      31:   60   17:   30   45:   60
          17      28:   60   47:   60   29:   44
          18      29:   60   30:   43    1:   14
          19      29:   60   30:   45   15:   28
          20       1:   27   31:   44   29:   43
          21      28:   60   31:   46   29:   44
          22       1:   30   18:   30   47:   60
          23      28:   60   31:   44   45:   60
          24       1:   27   31:   44   44:   60
          25      29:   60   44:   60    1:   14
          26       1:   28   46:   60    1:   15
          27      29:   60   46:   60   15:   28
          28       1:   29   16:   29    1:   13
          29       1:   27   45:   60   29:   43
          30       1:   28   47:   60   16:   28
          31      28:   60   45:   60   45:   60
          32       1:   27   45:   60   44:   60
New grid distribution:   3
           1      31:   60   16:   30   46:   60
           2      31:   60   46:   60   46:   60
           3      31:   60   16:   30    1:   15
           4      31:   60   46:   60    1:   15
           5      31:   60    1:   15   31:   45
           6      31:   60   31:   45   46:   60
           7      31:   60    1:   15    1:   15
           8      31:   60   31:   45    1:   15
           9      31:   60    1:   15   46:   60
          10       1:   30   46:   60   46:   60
          11      31:   60   16:   30   16:   30
          12       1:   30   46:   60    1:   15
          13      31:   60   16:   30   31:   45
          14       1:   30   31:   45   46:   60
          15      31:   60    1:   15   16:   30
          16       1:   30   31:   45    1:   15
          17       1:   30   16:   30   31:   45
          18       1:   30   16:   30    1:   15
          19      31:   60   31:   45   16:   30
          20       1:   30   31:   45   31:   45
          21       1:   30    1:   15   31:   45
          22      31:   60   31:   45   31:   45
          23       1:   30    1:   15    1:   15
          24       1:   30   46:   60   16:   30
          25       1:   30   16:   30   46:   60
          26       1:   30   16:   30   16:   30
          27      31:   60   46:   60   16:   30
          28       1:   30   46:   60   31:   45
          29       1:   30    1:   15   46:   60
          30      31:   60   46:   60   31:   45
          31       1:   30    1:   15   16:   30
          32       1:   30   31:   45   16:   30
Setting up quadratic distribution...
ExtMesh (bp) on 0 =    83 x    66 x    66 =      361548
PhiOnMesh: Number of (b)points on node 0 =                 6076
PhiOnMesh: nlist on node 0 =               234645
QETSC: Last update           = Dec 15, 2016
QETSC: Number of ranks       =          32
QETSC: Number of slices      =          32
QETSC: Number of ranks/slice =           1
QETSC: Number of evals/slice =  16.00
QETSC: Number of req. evals  =         512
QETSC: Number of rows (all)  =        2944
QETSC: Number of rows (max)  =          92
QETSC: Number of rows (min)  =          92
QETSC: Density option        =           0
QETSC: Bin type given        =           7
QETSC: Inertia type          =           1
QETSC: Infinity type         =           2
QETSC: Write option          =           1
QETSC: Bin buffer given      =   0.10
QETSC: Diff thresh           =   0.02
QETSC: Number of nonzeros    =      808032
QETSC: Nonzero % (all)       =   9.32
QETSC: Nonzero % (max)       =   9.81
QETSC: Nonzero % (min)       =   8.71
 QETSC: Shifts, inertias         =
      -INF     0
    -2.300     0
    -2.226   128
    -2.152   128
    -2.077   128
    -2.003   128
    -1.929   128
    -1.855   128
    -1.781   128
    -1.706   128
    -1.632   128
    -1.558   128
    -1.484   128
    -1.410   128
    -1.335   132
    -1.261   256
    -1.187   256
    -1.113   328
    -1.039   384
    -0.965   499
    -0.890   512
    -0.816   512
    -0.742   512
    -0.668   512
    -0.594   512
    -0.519   512
    -0.445   512
    -0.371   512
    -0.297   512
    -0.223   512
    -0.148   512
    -0.074   512
     0.000   512
 QETSc: Custers,iter,crange,npcmax,trial 1 0.171773298204675566E-01 26 36
-2.2855090725806448E+00
-2.2704385080645157E+00
-2.2553679435483871E+00
-2.2402973790322580E+00
-2.2263860887096771E+00
-1.4096774193548387E+00
-1.3911290322580645E+00
-1.3725806451612903E+00
-1.3540322580645161E+00
-1.3205254942767950E+00
-1.3049687825182101E+00
-1.2894120707596253E+00
-1.2738553590010406E+00
-1.2618886576482831E+00
-1.1706093189964157E+00
-1.1530913978494624E+00
-1.1355734767025090E+00
-1.1180555555555554E+00
-1.1009792626728110E+00
-1.0837557603686634E+00
-1.0665322580645160E+00
-1.0493087557603686E+00
-1.0309677419354837E+00
-1.0141935483870967E+00
-9.9741935483870958E-01
-9.8064516129032242E-01
-9.6451612903225792E-01
-9.4168734491315120E-01
-9.1885856079404460E-01
-9.0173697270471453E-01
-8.9032258064516123E-01
 QETSC: Bins             =
                   -INF
-2.2999999999999998E+00
-2.2824949596774191E+00
-2.2674243951612900E+00
-2.2523538306451614E+00
-2.2375151209677417E+00
-2.0630443548387096E+00
-1.4059677419354839E+00
-1.3874193548387097E+00
-1.3688709677419355E+00
-1.3473309053069720E+00
-1.3174141519250779E+00
-1.3018574401664931E+00
-1.2863007284079084E+00
-1.2714620187304890E+00
-1.2436327899179096E+00
-1.1671057347670251E+00
-1.1495878136200717E+00
-1.1320698924731183E+00
-1.1146402969790066E+00
-1.0975345622119814E+00
-1.0803110599078338E+00
-1.0630875576036865E+00
-1.0456405529953916E+00
-1.0276129032258063E+00
-1.0108387096774194E+00
-9.9406451612903213E-01
-9.7741935483870956E-01
-9.5995037220843660E-01
-9.3712158808932988E-01
-9.1543424317617861E-01
-8.9945409429280387E-01
-8.9032258064516123E-01
QETSC: Started iter            1
QETSC: Bin type used         =           7
QETSC: Buffer used           =   0.0000000000000000E+00
QETSC: EPS interval          =      -INF,    -0.890
QETSC: Inertia type          =           1
SLEPc: EPSSolve time = 22 1.578e-06
SLEPc: EPSSolve time = 6 2.140e-06
SLEPc: EPSSolve time = 23 1.647e-06
SLEPc: EPSSolve time = 0 3.678e-06
SLEPc: EPSSolve time = 24 3.441e-06
SLEPc: EPSSolve time = 9 2.081e-06
SLEPc: EPSSolve time = 29 1.451e-06
SLEPc: EPSSolve time = 7 1.589e-06
SLEPc: EPSSolve time = 31 3.139e-06
SLEPc: EPSSolve time = 8 3.286e-06
SLEPc: EPSSolve time = 30 3.630e-06
SLEPc: EPSSolve time = 14 5.280e+00
SLEPc: EPSSolve time = 28 5.510e+00
SLEPc: EPSSolve time = 15 5.727e+00
SLEPc: EPSSolve time = 21 5.940e+00
SLEPc: EPSSolve time = 16 7.517e+00
SLEPc: EPSSolve time = 25 7.566e+00
SLEPc: EPSSolve time = 1 7.819e+00
SLEPc: EPSSolve time = 17 8.083e+00
SLEPc: EPSSolve time = 20 8.377e+00
SLEPc: EPSSolve time = 13 8.450e+00
SLEPc: EPSSolve time = 4 8.944e+00
SLEPc: EPSSolve time = 18 9.158e+00
SLEPc: EPSSolve time = 19 9.441e+00
SLEPc: EPSSolve time = 5 1.079e+01
SLEPc: EPSSolve time = 12 1.130e+01
SLEPc: EPSSolve time = 2 1.393e+01
SLEPc: EPSSolve time = 10 1.553e+01
SLEPc: EPSSolve time = 11 1.566e+01
SLEPc: EPSSolve time = 3 1.574e+01
SLEPc: EPSSolve time = 26 1.635e+01
SLEPc: EPSSolve time = 27 1.827e+01
 QETSC: Eigenvalues         =
-2.2942690628581608E+00
-2.2915884994216942E+00
-2.2896858110285829E+00
-2.2887702009403337E+00
-2.2871893855683298E+00
-2.2864442651962431E+00
-2.2861183249658010E+00
-2.2846526193598446E+00
-2.2842757447009454E+00
-2.2838849403153736E+00
-2.2832597376925072E+00
-2.2826202848733526E+00
-2.2817977344205023E+00
-2.2807723115576151E+00
-2.2799192958388508E+00
-2.2796736362043166E+00
-2.2794625646533988E+00
-2.2790387687023133E+00
-2.2787413898837849E+00
-2.2783042952985624E+00
-2.2777764625635624E+00
-2.2770836314175478E+00
-2.2762865963685011E+00
-2.2762324003593353E+00
-2.2753415859596355E+00
-2.2749900340988058E+00
-2.2743175385671592E+00
-2.2738690925699689E+00
-2.2736510144693431E+00
-2.2731601396778660E+00
-2.2722736355734843E+00
-2.2718626563783744E+00
-2.2716372485707592E+00
-2.2710654791677301E+00
-2.2707219991903549E+00
-2.2705307103435342E+00
-2.2702128741747534E+00
-2.2697960991554043E+00
-2.2694817321788645E+00
-2.2692816488944274E+00
-2.2688425602110227E+00
-2.2680687756515896E+00
-2.2679429933377726E+00
-2.2676212969875049E+00
-2.2672988907711793E+00
-2.2669586985697223E+00
-2.2668328576681631E+00
-2.2664664309728035E+00
-2.2656407982522055E+00
-2.2653840999840265E+00
-2.2649376208451129E+00
-2.2647348708304711E+00
-2.2644244984389963E+00
-2.2635433553230775E+00
-2.2628490004930746E+00
-2.2624087521833309E+00
-2.2623506366917070E+00
-2.2617181215804529E+00
-2.2612513005171859E+00
-2.2609308311998269E+00
-2.2604805977944316E+00
-2.2600941457329116E+00
-2.2597923696226028E+00
-2.2594101258063568E+00
-2.2591144678915844E+00
-2.2588591469354560E+00
-2.2583724585643217E+00
-2.2580516869622391E+00
-2.2580424795069951E+00
-2.2573448842310544E+00
-2.2569543881446155E+00
-2.2564376889813866E+00
-2.2559933633951257E+00
-2.2558656814599174E+00
-2.2553007672815881E+00
-2.2550969554612887E+00
-2.2547972045674816E+00
-2.2546543720997425E+00
-2.2542411457914331E+00
-2.2539680889007605E+00
-2.2535887348866308E+00
-2.2534487633497688E+00
-2.2526824243218306E+00
-2.2524086470276297E+00
-2.2520019439714867E+00
-2.2513253251960497E+00
-2.2508525752879867E+00
-2.2506949894694905E+00
-2.2503018746960670E+00
-2.2497046828205418E+00
-2.2492648373470439E+00
-2.2491269551953730E+00
-2.2488743932046766E+00
-2.2483663850273086E+00
-2.2480622530948624E+00
-2.2477776116546493E+00
-2.2474912365676252E+00
-2.2472005157386827E+00
-2.2464806025749602E+00
-2.2458533768716453E+00
-2.2455471228788264E+00
-2.2453992139843963E+00
-2.2450032156242794E+00
-2.2448901664043497E+00
-2.2446090978846911E+00
-2.2442362860927108E+00
-2.2438517150039692E+00
-2.2433067158884041E+00
-2.2432047274368592E+00
-2.2428937088301857E+00
-2.2418899504623209E+00
-2.2414957006598653E+00
-2.2413577556944180E+00
-2.2408570790729434E+00
-2.2400244344608153E+00
-2.2399512944146278E+00
-2.2396231875987178E+00
-2.2391501246594046E+00
-2.2389536954495521E+00
-2.2388145908805179E+00
-2.2381296113895481E+00
-2.2375063830523843E+00
-2.2367386846868400E+00
-2.2364835818605795E+00
-2.2362797727998416E+00
-2.2356807818379059E+00
-2.2352029993864844E+00
-2.2340754124407649E+00
-1.3450505335226501E+00
-1.3381209246633010E+00
-1.3370903547836850E+00
-1.3360518880024717E+00
-1.3350334222278897E+00
-1.3338060640958207E+00
-1.3328997541346226E+00
-1.3319546925452779E+00
-1.3315511895013434E+00
-1.3310438176407760E+00
-1.3304846795488958E+00
-1.3294713142910457E+00
-1.3282467512102440E+00
-1.3266832116167853E+00
-1.3260468933902467E+00
-1.3256506200547000E+00
-1.3251920441296350E+00
-1.3247084077709024E+00
-1.3237405619322642E+00
-1.3232518508933651E+00
-1.3228810768706036E+00
-1.3220476689082714E+00
-1.3212147554786509E+00
-1.3207609129391873E+00
-1.3203078833749162E+00
-1.3199379835451732E+00
-1.3188596511595827E+00
-1.3187028376627370E+00
-1.3182790808711473E+00
-1.3180429069324811E+00
-1.3175154088694108E+00
-1.3173043428204656E+00
-1.3166322419837635E+00
-1.3164656015844836E+00
-1.3158598348646426E+00
-1.3152601846523870E+00
-1.3150780778937639E+00
-1.3144554512492781E+00
-1.3139919958791415E+00
-1.3139353664075581E+00
-1.3127493790714089E+00
-1.3121169680597298E+00
-1.3116942979710697E+00
-1.3111849903568638E+00
-1.3110280061346724E+00
-1.3106940727942413E+00
-1.3100514232746427E+00
-1.3096411272105415E+00
-1.3094479442730866E+00
-1.3088886777847033E+00
-1.3083800370368204E+00
-1.3075938614968301E+00
-1.3070920151012659E+00
-1.3066818437381911E+00
-1.3063854684421052E+00
-1.3060752949041856E+00
-1.3057625173019987E+00
-1.3053728047256936E+00
-1.3049288459337776E+00
-1.3046561464803592E+00
-1.3042130565403467E+00
-1.3037407642877805E+00
-1.3035691115942603E+00
-1.3031892932182798E+00
-1.3025750321560774E+00
-1.3022453876933990E+00
-1.3018798362270996E+00
-1.3016915578298605E+00
-1.3013637264944851E+00
-1.3006709358341382E+00
-1.3003880762174047E+00
-1.3001037291749098E+00
-1.2997070819472216E+00
-1.2993927770468334E+00
-1.2992060368967897E+00
-1.2982829311828155E+00
-1.2979832791193524E+00
-1.2977602033991393E+00
-1.2969398551548397E+00
-1.2964137894023222E+00
-1.2962394265286088E+00
-1.2957595940511710E+00
-1.2952468633043568E+00
-1.2949768662438290E+00
-1.2946349511009616E+00
-1.2940441335543165E+00
-1.2936347013269172E+00
-1.2929992470000831E+00
-1.2920852434482322E+00
-1.2918548634989597E+00
-1.2913881751297043E+00
-1.2909994718850575E+00
-1.2908774403005745E+00
-1.2902682431014929E+00
-1.2891482198809849E+00
-1.2888647408030496E+00
-1.2887310304517738E+00
-1.2881288324929046E+00
-1.2880577514019895E+00
-1.2875425990727349E+00
-1.2873119438777185E+00
-1.2869349338843172E+00
-1.2867902454403495E+00
-1.2865547820082204E+00
-1.2857729645199500E+00
-1.2856188472840038E+00
-1.2851178957358176E+00
-1.2848348190046728E+00
-1.2839115757136330E+00
-1.2835454684698884E+00
-1.2833280494735906E+00
-1.2826621438971677E+00
-1.2824147972135902E+00
-1.2816399411388160E+00
-1.2803896803089854E+00
-1.2800921776228413E+00
-1.2795124726291423E+00
-1.2787647700141789E+00
-1.2782907389652904E+00
-1.2774153946482720E+00
-1.2767004799593562E+00
-1.2754305415791980E+00
-1.2748468938931767E+00
-1.2734903064618939E+00
-1.2733844790737336E+00
-1.2722721316023951E+00
-1.2712019575783962E+00
-1.2644938901098528E+00
-1.1784272869549239E+00
-1.1776383245095234E+00
-1.1740926806653702E+00
-1.1698048211617531E+00
-1.1672458934899812E+00
-1.1653847234684303E+00
-1.1641847839711363E+00
-1.1633340971434913E+00
-1.1629666760519359E+00
-1.1613445801332543E+00
-1.1600331059754028E+00
-1.1580179666722303E+00
-1.1574016339007149E+00
-1.1563388662491669E+00
-1.1555693205293256E+00
-1.1552852737849864E+00
-1.1537522761729215E+00
-1.1534764755035247E+00
-1.1528598222411381E+00
-1.1516568741354967E+00
-1.1512703030790126E+00
-1.1494768408725733E+00
-1.1491088700388805E+00
-1.1482881212870799E+00
-1.1480247057249793E+00
-1.1468993465594659E+00
-1.1456484785112373E+00
-1.1454536984774126E+00
-1.1447770575952765E+00
-1.1438270730910023E+00
-1.1425061359296733E+00
-1.1417976047214324E+00
-1.1415431409988563E+00
-1.1407133896082560E+00
-1.1398027665834716E+00
-1.1387948918303668E+00
-1.1384787682955135E+00
-1.1379583010764944E+00
-1.1371129387579861E+00
-1.1361588626618337E+00
-1.1357314647054002E+00
-1.1348572099419270E+00
-1.1345399167232710E+00
-1.1332125113982316E+00
-1.1327929886648338E+00
-1.1318497997709569E+00
-1.1302155198534649E+00
-1.1301689638552657E+00
-1.1289620692808235E+00
-1.1286611291804980E+00
-1.1274305231654185E+00
-1.1265893454450793E+00
-1.1260793904912763E+00
-1.1257179424588812E+00
-1.1250174028749558E+00
-1.1244069201155531E+00
-1.1232372158726684E+00
-1.1218902469425689E+00
-1.1214113806925603E+00
-1.1212947308553571E+00
-1.1202118833597465E+00
-1.1200313229924068E+00
-1.1196359748230966E+00
-1.1189973025562199E+00
-1.1181660783302327E+00
-1.1176159049677914E+00
-1.1170048611135384E+00
-1.1161809155452338E+00
-1.1146373907436149E+00
-1.1144111515026613E+00
-1.1140277445459301E+00
-1.1132452651050422E+00
-1.1121003170969017E+00
-1.1111048544958066E+00
-1.1106267222043933E+00
-1.1098070607260142E+00
-1.1097158141993593E+00
-1.1091794626350755E+00
-1.1078059701545133E+00
-1.1074195999386538E+00
-1.1072329891258270E+00
-1.1062618352113127E+00
-1.1055505725683563E+00
-1.1047230116440248E+00
-1.1034231988937149E+00
-1.1025304616352760E+00
-1.1020260424171635E+00
-1.1015976587626291E+00
-1.1007940866876327E+00
-1.0995097035908421E+00
-1.0991835859242427E+00
-1.0985879425466545E+00
-1.0981983685435905E+00
-1.0977810836406321E+00
-1.0974087430165782E+00
-1.0962453812202848E+00
-1.0957468835687296E+00
-1.0952458655075037E+00
-1.0943235071564243E+00
-1.0941059170431353E+00
-1.0935136387894644E+00
-1.0925585575532419E+00
-1.0917752813613819E+00
-1.0912360709329876E+00
-1.0906489878096728E+00
-1.0894866171964721E+00
-1.0885483069395592E+00
-1.0879472073113190E+00
-1.0876067328216803E+00
-1.0861417860089602E+00
-1.0857405573882228E+00
-1.0847778790059641E+00
-1.0841163720768752E+00
-1.0836849793107477E+00
-1.0827063994088821E+00
-1.0822887166209807E+00
-1.0812574180679007E+00
-1.0805119165141173E+00
-1.0787735010717696E+00
-1.0785606974411066E+00
-1.0778306568645055E+00
-1.0756641068126487E+00
-1.0753383127048444E+00
-1.0743863805314782E+00
-1.0723485759763811E+00
-1.0716097469671624E+00
-1.0702154541833024E+00
-1.0674710429940046E+00
-1.0014987829968005E+00
-9.9698070433330299E-01
-9.9593930943638753E-01
-9.9563810528446572E-01
-9.9549740503740958E-01
-9.9492121220410967E-01
-9.9456594621644112E-01
-9.9384977538225405E-01
-9.9371612840045298E-01
-9.9307113621170606E-01
-9.9274396623831107E-01
-9.9188872118006866E-01
-9.9148102145569583E-01
-9.9131078395582328E-01
-9.9119701700186480E-01
-9.9084986275858045E-01
-9.9063126996612016E-01
-9.9040824396312332E-01
-9.8954799750229117E-01
-9.8938495407099147E-01
-9.8918529576447567E-01
-9.8889927176401815E-01
-9.8869136215580566E-01
-9.8851111983038831E-01
-9.8814240440892898E-01
-9.8748111052832110E-01
-9.8736243647420463E-01
-9.8690438945059811E-01
-9.8679187518693123E-01
-9.8661093528033394E-01
-9.8640806834611960E-01
-9.8610786923796467E-01
-9.8581315999546193E-01
-9.8568632169440396E-01
-9.8505007715771420E-01
-9.8484523321122930E-01
-9.8473350540960969E-01
-9.8456098065390896E-01
-9.8413094914849630E-01
-9.8405769207819760E-01
-9.8378674586163151E-01
-9.8329672596426998E-01
-9.8309463160978816E-01
-9.8287039335729054E-01
-9.8251811441446413E-01
-9.8221653202282611E-01
-9.8192534392688691E-01
-9.8166375999686328E-01
-9.8142985968730967E-01
-9.8125829758512872E-01
-9.8086870579056096E-01
-9.8058224349113809E-01
-9.8021545657867493E-01
-9.8009136182470113E-01
-9.7975448089552375E-01
-9.7964447878273297E-01
-9.7944546442772906E-01
-9.7937015026840313E-01
-9.7923459432821225E-01
-9.7900834974639017E-01
-9.7881916776915212E-01
-9.7878957598054273E-01
-9.7841218981588640E-01
-9.7831233129587047E-01
-9.7775248268453918E-01
-9.7770841346243453E-01
-9.7749529767777921E-01
-9.7729131641567857E-01
-9.7689177650886727E-01
-9.7675780595030359E-01
-9.7642571515170562E-01
-9.7618113222168190E-01
-9.7601429259067918E-01
-9.7583413392284757E-01
-9.7571706854695084E-01
-9.7526173613521117E-01
-9.7513360069750488E-01
-9.7468181928854225E-01
-9.7452268099836725E-01
-9.7434078460636386E-01
-9.7402640129373119E-01
-9.7377708075108904E-01
-9.7364979904066473E-01
-9.7340386033277326E-01
-9.7309993977075404E-01
-9.7281290373752216E-01
-9.7256170635247208E-01
-9.7230522163541266E-01
-9.7188994630039893E-01
-9.7159026550932159E-01
-9.7142060392885021E-01
-9.7101359907716833E-01
-9.7069734859339540E-01
-9.7063523487939274E-01
-9.7049632109136597E-01
-9.7016040254762315E-01
-9.6995239438624936E-01
-9.6964158235184561E-01
-9.6940602660934749E-01
-9.6887427227922884E-01
-9.6858910093293371E-01
-9.6854869727488457E-01
-9.6811394897073522E-01
-9.6771494972083072E-01
-9.6750531361940562E-01
-9.6732721792636656E-01
-9.6702157790961163E-01
-9.6692503860433099E-01
-9.6633351329084771E-01
-9.6619091981997418E-01
-9.6603080955246268E-01
-9.6567596547507362E-01
-9.6556349041604450E-01
-9.6554843064130813E-01
-9.6477412409792351E-01
-9.6399245508776299E-01
-9.6361632463584590E-01
-9.6334023884483899E-01
-9.6239426431148178E-01
-9.6202739810275029E-01
-9.6171025066074811E-01
-9.6160819316098156E-01
-9.6096517027150308E-01
-9.6071538112038879E-01
-9.6040063508262774E-01
-9.6006291333214810E-01
-9.5888179154989983E-01
-9.5630094115912179E-01
QETSC: Iter time (min)       =     1  28.91
QETSC: Iter time (max)       =     1  28.91
QETSC: Iter time (avg)       =     1  28.91
QETSC: Num. of conv. evals   =     1         512
QETSC: Eigenvalue (1)        =     1  -2.2942690628581608E+00
QETSC: Eigenvalue (nocc)     =     1  -9.5630094115912179E-01
QETSC: Max differrence       =     1   2.2942690628581608E+00
QETSC: Safe iteration        =     1      F
QETSC: Finished iter         =           1
 *****************************************************************
QETSC: SCF iter time=  29.040

siesta: Program's energy decomposition (eV):
siesta: Ebs     =    -19717.145141
siesta: Eions   =    104429.373288
siesta: Ena     =     25111.247127
siesta: Ekin    =     39771.655038
siesta: Enl     =     -5671.889728
siesta: DEna    =         0.000020
siesta: DUscf   =         0.000000
siesta: DUext   =         0.000000
siesta: Exc     =    -14272.759880
siesta: eta*DQ  =         0.000000
siesta: Emadel  =         0.000000
siesta: Emeta   =         0.000000
siesta: Emolmec =         0.000000
siesta: Ekinion =         0.000000
siesta: Eharris =    -60791.143089
siesta: Etot    =    -59491.120711
siesta: FreeEng =    -59491.120711
timer: Routine,Calls,Time,% =    IterSCF     1      32.530  57.02
 QETSC: Shifts, inertias         =
      -INF     0
    -2.300     0
    -2.226     0
    -2.152     0
    -2.077     0
    -2.003     0
    -1.929     0
    -1.855     0
    -1.781     0
    -1.706     0
    -1.632     2
    -1.558    19
    -1.484    61
    -1.410   112
    -1.335   128
    -1.261   128
    -1.187   128
    -1.113   128
    -1.039   128
    -0.965   128
    -0.890   128
    -0.816   139
    -0.742   180
    -0.668   234
    -0.594   255
    -0.519   258
    -0.445   274
    -0.371   305
    -0.297   345
    -0.223   387
    -0.148   443
    -0.074   497
     0.000   512
 QETSc: Custers,iter,crange,npcmax,trial 2 0.401291363163371467E-01 32 5
-1.6693548387096773E+00
-1.5929791271347247E+00
-1.5492319508448540E+00
-1.5086021505376341E+00
-1.4678684376976596E+00
-1.4271347248576849E+00
-1.3864919354838710E+00
-1.3447580645161290E+00
-1.3401209677419355E+00
-8.5659824046920818E-01
-8.1070023603461838E-01
-7.6907946498819812E-01
-7.2819593787335712E-01
-6.8697729988052569E-01
-6.4654377880184333E-01
-6.0414746543778797E-01
-5.6881720430107519E-01
-5.0544354838709671E-01
-4.6370967741935476E-01
-4.2122788761706548E-01
-3.8054110301768984E-01
-3.3943548387096772E-01
-2.9862903225806448E-01
-2.5791090629800306E-01
-2.1728110599078337E-01
-1.7620967741935481E-01
-1.3602150537634405E-01
-9.4802867383512512E-02
-5.4408602150537604E-02
-9.8924731182795430E-03
 2.7755575615628914E-17
 QETSC: Bins             =
                   -INF
-1.7064516129032257E+00
-1.6540796963946867E+00
-1.5842296918767504E+00
-1.5411059907834099E+00
-1.5004554079696393E+00
-1.4597216951296648E+00
-1.4190061669829221E+00
-1.3781451612903226E+00
-1.3438306451612902E+00
-1.2434164222873900E+00
-8.4741863958229025E-01
-8.0237608182533438E-01
-7.6090275956522990E-01
-7.1995221027479084E-01
-6.7889059566478926E-01
-6.3806451612903226E-01
-5.9708141321044539E-01
-5.5614247311827947E-01
-4.9709677419354831E-01
-4.5521331945889693E-01
-4.1309053069719037E-01
-3.7231997918834542E-01
-3.3127419354838705E-01
-2.9048540706605219E-01
-2.4978494623655911E-01
-2.0906682027649767E-01
-1.6817204301075267E-01
-1.2777777777777774E-01
-8.6724014336917538E-02
-4.5505376344085996E-02
-7.9139784946236288E-03
 2.7755575615628914E-17
QETSC: Started iter            2
QETSC: Bin type used         =           7
QETSC: Buffer used           =   0.0000000000000000E+00
QETSC: EPS interval          =      -INF,     0.000
QETSC: Inertia type          =           1
SLEPc: EPSSolve time = 31 3.101e-06
SLEPc: EPSSolve time = 0 3.795e-06
SLEPc: EPSSolve time = 17 5.353e+00
SLEPc: EPSSolve time = 9 5.557e+00
SLEPc: EPSSolve time = 1 5.626e+00
SLEPc: EPSSolve time = 18 5.629e+00
SLEPc: EPSSolve time = 16 5.697e+00
SLEPc: EPSSolve time = 10 5.777e+00
SLEPc: EPSSolve time = 30 5.837e+00
SLEPc: EPSSolve time = 8 5.944e+00
SLEPc: EPSSolve time = 19 6.085e+00
SLEPc: EPSSolve time = 29 6.486e+00
SLEPc: EPSSolve time = 7 6.563e+00
SLEPc: EPSSolve time = 20 6.589e+00
SLEPc: EPSSolve time = 11 7.898e+00
SLEPc: EPSSolve time = 21 7.988e+00
SLEPc: EPSSolve time = 2 8.016e+00
SLEPc: EPSSolve time = 22 8.018e+00
SLEPc: EPSSolve time = 3 8.033e+00
SLEPc: EPSSolve time = 23 8.060e+00
SLEPc: EPSSolve time = 6 8.570e+00
SLEPc: EPSSolve time = 15 8.827e+00
SLEPc: EPSSolve time = 24 9.225e+00
SLEPc: EPSSolve time = 5 9.266e+00
SLEPc: EPSSolve time = 4 9.522e+00
SLEPc: EPSSolve time = 28 9.835e+00
SLEPc: EPSSolve time = 13 1.029e+01
SLEPc: EPSSolve time = 25 1.033e+01
SLEPc: EPSSolve time = 14 1.045e+01
SLEPc: EPSSolve time = 12 1.063e+01
SLEPc: EPSSolve time = 26 1.222e+01
SLEPc: EPSSolve time = 27 1.540e+01
 QETSC: Eigenvalues         =
-1.6575748078163579E+00
-1.6412756903854699E+00
-1.6281966320463324E+00
-1.6151475121700298E+00
-1.6084039607259661E+00
-1.6034305632555874E+00
-1.5989905267874538E+00
-1.5966625358506328E+00
-1.5952286718222624E+00
-1.5873307759003479E+00
-1.5819270248827770E+00
-1.5799648062111677E+00
-1.5738984025793059E+00
-1.5697039950712235E+00
-1.5670832583237324E+00
-1.5666224245818627E+00
-1.5648000501691945E+00
-1.5595168211935364E+00
-1.5591315533892940E+00
-1.5564743480892473E+00
-1.5549190273171116E+00
-1.5509243304294320E+00
-1.5500057675463099E+00
-1.5494900224649459E+00
-1.5481087096692978E+00
-1.5422861211671688E+00
-1.5418101257051282E+00
-1.5411334375370125E+00
-1.5371296074535872E+00
-1.5354054601464002E+00
-1.5351523262386557E+00
-1.5336779875426085E+00
-1.5329312013479612E+00
-1.5320181519208229E+00
-1.5306575617544442E+00
-1.5297131691866372E+00
-1.5279654961540081E+00
-1.5274400781547364E+00
-1.5229012690079131E+00
-1.5202341509360235E+00
-1.5180393892682831E+00
-1.5170618843021362E+00
-1.5167194051660282E+00
-1.5144178401632526E+00
-1.5119129926191370E+00
-1.5108612653702593E+00
-1.5106774045384710E+00
-1.5090991056063661E+00
-1.5051579871113063E+00
-1.5042932060418079E+00
-1.5021926076675187E+00
-1.5015262297003478E+00
-1.4988497179880003E+00
-1.4969569242335088E+00
-1.4966067799065030E+00
-1.4934746132002632E+00
-1.4917098054448676E+00
-1.4894793266962993E+00
-1.4884890258751542E+00
-1.4882844286675985E+00
-1.4850099009408102E+00
-1.4828681900076079E+00
-1.4818171673444369E+00
-1.4806936192384781E+00
-1.4800820719458643E+00
-1.4787601584852472E+00
-1.4770995702495282E+00
-1.4741875403413967E+00
-1.4736665474455333E+00
-1.4717809998106475E+00
-1.4709973926893352E+00
-1.4700849301343379E+00
-1.4695167819095838E+00
-1.4679613029596736E+00
-1.4671197978966573E+00
-1.4662350330246281E+00
-1.4653115389381288E+00
-1.4646035160545587E+00
-1.4624801838999844E+00
-1.4621189149693796E+00
-1.4607465449314585E+00
-1.4589629731205693E+00
-1.4578555778323274E+00
-1.4555919845164138E+00
-1.4543232636662042E+00
-1.4530523487553699E+00
-1.4524650028677515E+00
-1.4520293807371192E+00
-1.4505959580975116E+00
-1.4482575756055636E+00
-1.4477601765140793E+00
-1.4470245521657057E+00
-1.4445991016849722E+00
-1.4430587150573539E+00
-1.4398300010106770E+00
-1.4382529534029476E+00
-1.4368804326450737E+00
-1.4360202252501590E+00
-1.4352960975058249E+00
-1.4343225299641207E+00
-1.4300328225853023E+00
-1.4289180485410935E+00
-1.4260957631573750E+00
-1.4255320667211835E+00
-1.4241880391816022E+00
-1.4213849788545552E+00
-1.4189040170041929E+00
-1.4180205257706389E+00
-1.4173348076760317E+00
-1.4155184899486359E+00
-1.4131683262511410E+00
-1.4127529460439927E+00
-1.4056366941510221E+00
-1.4052997133897147E+00
-1.4015161348492688E+00
-1.4011798319165232E+00
-1.3997661465894955E+00
-1.3992159562544884E+00
-1.3957918741299047E+00
-1.3917041739180103E+00
-1.3893521922385896E+00
-1.3862389906228294E+00
-1.3761768196603377E+00
-1.3692590889945455E+00
-1.3675261924149174E+00
-1.3659885836692554E+00
-1.3655349727137813E+00
-1.3413533686727042E+00
-8.7013121344521083E-01
-8.6920949236303935E-01
-8.5500283609083771E-01
-8.4972218821384815E-01
-8.4244266072635599E-01
-8.3769415551361337E-01
-8.3491365978115550E-01
-8.2384440055561547E-01
-8.2343902649373868E-01
-8.1953884933776511E-01
-8.1625341258136686E-01
-8.1487468551344933E-01
-8.1105916258708632E-01
-8.1027166745474732E-01
-8.0850345342080876E-01
-8.0620646919209649E-01
-8.0373896181595084E-01
-8.0176988543771466E-01
-8.0018788383062078E-01
-7.9822181056049446E-01
-7.9732235074719160E-01
-7.9638978414805084E-01
-7.9432765953036888E-01
-7.9232510005694112E-01
-7.9132220616749294E-01
-7.8961737375612184E-01
-7.8740898299418716E-01
-7.8518098374260281E-01
-7.8421082903910289E-01
-7.8081221167373283E-01
-7.7774412742964061E-01
-7.7705752640228021E-01
-7.7509269614423593E-01
-7.7398859163311762E-01
-7.7270198664233825E-01
-7.7111365956561795E-01
-7.6985855874743048E-01
-7.6801052453508378E-01
-7.6680975696168996E-01
-7.6347769760182971E-01
-7.6231150137748438E-01
-7.6106873119992713E-01
-7.5945381000279732E-01
-7.5842232368838314E-01
-7.5683220174517774E-01
-7.5480698983148076E-01
-7.5347431985065849E-01
-7.5035242103502686E-01
-7.4955391518284520E-01
-7.4847178736142461E-01
-7.4295042190703997E-01
-7.4194620753595941E-01
-7.4080004347318773E-01
-7.3886139625681790E-01
-7.3707044667130284E-01
-7.3620787482979866E-01
-7.3586550601788592E-01
-7.3420962011591828E-01
-7.3331559334955043E-01
-7.3295850847879451E-01
-7.3194094133080334E-01
-7.3079485683260970E-01
-7.2840551063318570E-01
-7.2776389518203521E-01
-7.2684318955939853E-01
-7.2530254911236547E-01
-7.2316212169155181E-01
-7.2173705918913722E-01
-7.2062018754536716E-01
-7.2038467703050024E-01
-7.1943412454325850E-01
-7.1879930682059945E-01
-7.1721097248093757E-01
-7.1518661294351737E-01
-7.1355141413419942E-01
-7.1327155597175029E-01
-7.1161526048318002E-01
-7.1116808373856966E-01
-7.1008047369380345E-01
-7.0783851948893817E-01
-7.0612340885828728E-01
-7.0461123822549965E-01
-7.0357653780167417E-01
-7.0111660246126106E-01
-7.0068566477415606E-01
-6.9908787167149722E-01
-6.9743725718035166E-01
-6.9628665811648305E-01
-6.9540329966260961E-01
-6.9350260417104337E-01
-6.9204402622892636E-01
-6.9018081696740452E-01
-6.8823721119734804E-01
-6.8661086738124510E-01
-6.8465180496440847E-01
-6.8372400010725642E-01
-6.8272953790465052E-01
-6.8150776343222885E-01
-6.8057594696133628E-01
-6.7930105434626853E-01
-6.7885999628269389E-01
-6.7501883103797633E-01
-6.7387186073710259E-01
-6.7340762347144589E-01
-6.7047583960390067E-01
-6.6854569364410532E-01
-6.6750810393670124E-01
-6.6601869135231095E-01
-6.6369988886346876E-01
-6.6245746777804915E-01
-6.6110960652485373E-01
-6.5841840849878519E-01
-6.5807970454297382E-01
-6.5589437006699902E-01
-6.5383619455807918E-01
-6.5356684728964520E-01
-6.5119042789350112E-01
-6.4963800840898289E-01
-6.4761052633581917E-01
-6.4572188777059181E-01
-6.4326068912206447E-01
-6.4180820559608609E-01
-6.4015090486985571E-01
-6.3947865024226058E-01
-6.3307538715130041E-01
-6.1687607910167330E-01
-6.0715487738661100E-01
-5.9004334370983447E-01
-5.6630979124092251E-01
-5.2291724090406233E-01
-5.1152383753493935E-01
-5.0032936896516134E-01
-4.9486498466798595E-01
-4.8447452951415809E-01
-4.7620236371790636E-01
-4.7433718582697088E-01
-4.7373559831477891E-01
-4.6840444019199717E-01
-4.6706927180710001E-01
-4.6500908727806201E-01
-4.5738429396714936E-01
-4.5511791988239869E-01
-4.5140557919163848E-01
-4.4887008893664454E-01
-4.4790476865934220E-01
-4.4543172913290840E-01
-4.4247902556417279E-01
-4.3837298740620517E-01
-4.3684265634999458E-01
-4.3662179587179328E-01
-4.3238530805265901E-01
-4.2790720098450258E-01
-4.2660227334745704E-01
-4.2456477336440612E-01
-4.2266656579499962E-01
-4.1952339508897907E-01
-4.1622449767298386E-01
-4.1613311974448713E-01
-4.1343142480711226E-01
-4.1137592451115479E-01
-4.0767311846397697E-01
-4.0632612126285172E-01
-4.0493846275483047E-01
-4.0329710703496541E-01
-4.0186234232511781E-01
-4.0063373519077783E-01
-3.9767245033481213E-01
-3.9559887249623460E-01
-3.9282139215075984E-01
-3.9016360479351009E-01
-3.8893536010845742E-01
-3.8752115046930852E-01
-3.8524381568093857E-01
-3.8360436385915314E-01
-3.8031598916669362E-01
-3.7656115500736359E-01
-3.7429870890154038E-01
-3.7076580862247122E-01
-3.6783055394970188E-01
-3.6628744865856794E-01
-3.6455655723103192E-01
-3.6378515080769380E-01
-3.6245563684159160E-01
-3.6032281002208222E-01
-3.5835026022841859E-01
-3.5747469269349125E-01
-3.5662702182173234E-01
-3.5377460517317288E-01
-3.5191876012478035E-01
-3.5032702068679250E-01
-3.4808628034521621E-01
-3.4631908479219647E-01
-3.4408878617329997E-01
-3.4317719905886962E-01
-3.4089467582018956E-01
-3.4034193612822083E-01
-3.3753140209517885E-01
-3.3533241762112603E-01
-3.3175538358513984E-01
-3.3090959150806498E-01
-3.2930008426756857E-01
-3.2684634562241027E-01
-3.2553103211115964E-01
-3.2352519789394335E-01
-3.2060029256040112E-01
-3.1867023271766948E-01
-3.1823762192861887E-01
-3.1664827784365301E-01
-3.1549054933743675E-01
-3.1219721874519046E-01
-3.1094929504619145E-01
-3.0969168916519724E-01
-3.0783045254588537E-01
-3.0548942735704065E-01
-3.0346415821882455E-01
-2.9987794051039762E-01
-2.9841109833669355E-01
-2.9661848351614811E-01
-2.9373203589388786E-01
-2.9230976175161599E-01
-2.9072093254130921E-01
-2.8936420824216053E-01
-2.8652822409619694E-01
-2.8425160239891439E-01
-2.8271535031681644E-01
-2.8182795719381692E-01
-2.7862983398421071E-01
-2.7711888508595989E-01
-2.7660229744540854E-01
-2.7413422498466211E-01
-2.7275554028498317E-01
-2.7097785708427330E-01
-2.6716724866681102E-01
-2.6703633171720492E-01
-2.6685751918883743E-01
-2.6368250507233498E-01
-2.6206607741662757E-01
-2.5999406768968342E-01
-2.5944803295816543E-01
-2.5725111460912431E-01
-2.5226295433976137E-01
-2.5168337585547729E-01
-2.4797911147161461E-01
-2.4711353727414348E-01
-2.4672192248751695E-01
-2.4528254694067542E-01
-2.4425792324975423E-01
-2.4101436448566987E-01
-2.3943921807454682E-01
-2.3794215640983479E-01
-2.3675656046023241E-01
-2.3499652995008560E-01
-2.3111732995739462E-01
-2.3009894897442959E-01
-2.2900826348550768E-01
-2.2782782374176233E-01
-2.2464143130241088E-01
-2.2335732358098501E-01
-2.2286911496357054E-01
-2.2212696360827344E-01
-2.2010615996598323E-01
-2.1858587317154865E-01
-2.1809511333103604E-01
-2.1770875009699756E-01
-2.1535781981436081E-01
-2.1440096533535341E-01
-2.1237664332780290E-01
-2.1146999741887079E-01
-2.1072180143232808E-01
-2.0982989380894032E-01
-2.0843643118195157E-01
-2.0797099249081880E-01
-2.0499930837027189E-01
-2.0264298071965947E-01
-2.0089894736172750E-01
-2.0023528362183432E-01
-1.9961306382783284E-01
-1.9824323293826740E-01
-1.9620748350773540E-01
-1.9554337328653207E-01
-1.9406823393471323E-01
-1.9200443444047927E-01
-1.9051902588423347E-01
-1.8939794134552163E-01
-1.8679114500347382E-01
-1.8620952003492108E-01
-1.8360787210632801E-01
-1.8217305027046171E-01
-1.8163532277217445E-01
-1.8064572621214864E-01
-1.7862763633007420E-01
-1.7736939258426807E-01
-1.7514284640117858E-01
-1.7446477148755807E-01
-1.7306235209426810E-01
-1.7272836119786811E-01
-1.7057085977215322E-01
-1.6914332179985742E-01
-1.6831641017987503E-01
-1.6717862017819540E-01
-1.6693930022447179E-01
-1.6514675782973937E-01
-1.6368970406046482E-01
-1.6297159519074694E-01
-1.6159337204275775E-01
-1.6029554429099793E-01
-1.5936438662250310E-01
-1.5786783866519769E-01
-1.5723671727804064E-01
-1.5579307267523174E-01
-1.5470597209304834E-01
-1.5394510847758699E-01
-1.5158609650396954E-01
-1.5020787653893911E-01
-1.4914908361127197E-01
-1.4831691079809337E-01
-1.4662689038851437E-01
-1.4572847551228507E-01
-1.4493262441363969E-01
-1.4439291833432427E-01
-1.4344445979622625E-01
-1.4160517636381392E-01
-1.3979688727409514E-01
-1.3879887748338174E-01
-1.3780016899884465E-01
-1.3620936721934873E-01
-1.3620027148813157E-01
-1.3383135988699016E-01
-1.3256881765473896E-01
-1.3162399357057583E-01
-1.3101949163640361E-01
-1.3020902055835060E-01
-1.2985562404909412E-01
-1.2741944322262130E-01
-1.2627075929302115E-01
-1.2488732591199003E-01
-1.2288301721980957E-01
-1.2014291840497490E-01
-1.1983426578623754E-01
-1.1917158577230225E-01
-1.1777276195716486E-01
-1.1755842643566514E-01
-1.1621859324218112E-01
-1.1445510988605231E-01
-1.1317439230962391E-01
-1.1203243456075195E-01
-1.1082444175738154E-01
-1.0962692341330631E-01
-1.0912147470666522E-01
-1.0824425472508593E-01
-1.0509591278844575E-01
-1.0437362301935232E-01
-1.0341382404074886E-01
-1.0113588667738105E-01
-1.0065293756997470E-01
-9.9165077954388572E-02
-9.7810029747697508E-02
-9.6229571504448358E-02
-9.4091590593076826E-02
-9.0655895162590663E-02
-8.9124040478691477E-02
-8.8560157443228510E-02
-8.7759297751291959E-02
-8.6283442061898571E-02
-8.4723830775120343E-02
-8.1989847448476774E-02
-7.9982471400720151E-02
-7.9046793561959428E-02
-7.7891125194148939E-02
-7.3009386937779128E-02
-6.8773088736276050E-02
-6.5727362167415829E-02
-6.4798272845205451E-02
-6.2906118530155847E-02
-5.8416285566059628E-02
-5.5738394576487091E-02
-5.2230747232931939E-02
-5.0987033333757426E-02
-4.4817057014505460E-02
-4.3508621892674945E-02
-4.2867347363341801E-02
-3.8124214785300731E-02
-3.4374699914313113E-02
-1.7895993239344692E-02
QETSC: Iter time (min)       =     2  24.70
QETSC: Iter time (max)       =     2  24.70
QETSC: Iter time (avg)       =     2  24.70
QETSC: Num. of conv. evals   =     2         512
QETSC: Eigenvalue (1)        =     2  -1.6575748078163579E+00
QETSC: Eigenvalue (nocc)     =     2  -1.7895993239344692E-02
QETSC: Max differrence       =     2   9.3840494791977713E-01
QETSC: Safe iteration        =     2      F
QETSC: Finished iter         =           2
 *****************************************************************
QETSC: SCF iter time=  24.710
 QETSC: Shifts, inertias         =
      -INF     0
    -2.300     0
    -2.226     0
    -2.152     0
    -2.077     0
    -2.003     8
    -1.929    99
    -1.855   128
    -1.781   128
    -1.706   128
    -1.632   128
    -1.558   128
    -1.484   128
    -1.410   128
    -1.335   128
    -1.261   128
    -1.187   128
    -1.113   134
    -1.039   217
    -0.965   256
    -0.890   258
    -0.816   306
    -0.742   372
    -0.668   402
    -0.594   506
    -0.519   512
    -0.445   512
    -0.371   512
    -0.297   512
    -0.223   512
    -0.148   512
    -0.074   512
     0.000   512
 QETSc: Custers,iter,crange,npcmax,trial 3 0.276619411133136595E-01 32 21
-2.0588709677419352E+00
-2.0310483870967739E+00
-1.9942573555476779E+00
-1.9681673165544131E+00
-1.9420772775611483E+00
-1.9136818687430477E+00
-1.8855394883203558E+00
-1.8573971078976639E+00
-1.1623655913978495E+00
-1.1252688172043011E+00
-1.0860862806062961E+00
-1.0583754372328020E+00
-1.0311000827129859E+00
-1.0025641025641023E+00
-9.7402812241521908E-01
-9.6451612903225792E-01
-9.2741935483870952E-01
-8.6404569892473115E-01
-8.3622311827956985E-01
-8.0713587487781024E-01
-7.7903225806451604E-01
-7.5092864125122183E-01
-7.2215053763440851E-01
-6.9247311827956981E-01
-6.6274813895781637E-01
[...]

/home/keceli/scratch2/siesta-qetsc/Obj/siesta on a arch-xl named Q02-I4-J04.vesta.itd with 32 processors, by Unknown Thu Jan 12 13:24:25 2017
Using Petsc Development GIT revision: v3.7.3-1204-g68f0caa  GIT Date: 2016-08-19 16:41:02 -0500

                         Max       Max/Min        Avg      Total 
Time (sec):           3.989e+02      1.00000   3.989e+02
Objects:              1.739e+03      1.15548   1.668e+03
Flops:                1.310e+10   2691.55360   8.231e+09  2.634e+11
Flops/sec:            3.283e+07   2691.55356   2.063e+07  6.603e+08
MPI Messages:         1.411e+04      1.93792   1.042e+04  3.334e+05
MPI Message Lengths:  9.731e+07      2.41676   6.868e+03  2.290e+09
MPI Reductions:       9.408e+03      1.00000

Flop counting convention: 1 flop = 1 real number operation of type (multiply/divide/add/subtract)
                            e.g., VecAXPY() for real vectors of length N --> 2N flops
                            and VecAXPY() for complex vectors of length N --> 8N flops

Summary of Stages:   ----- Time ------  ----- Flops -----  --- Messages ---  -- Message Lengths --  -- Reductions --
                        Avg     %Total     Avg     %Total   counts   %Total     Avg         %Total   counts   %Total 
 0:      Main Stage: 1.9706e-04   0.0%  0.0000e+00   0.0%  0.000e+00   0.0%  0.000e+00        0.0%  0.000e+00   0.0% 
 1:     siesta_init: 4.1788e+00   1.0%  0.0000e+00   0.0%  0.000e+00   0.0%  0.000e+00        0.0%  0.000e+00   0.0% 
 2:   siesta_forces: 2.4036e+01   6.0%  0.0000e+00   0.0%  0.000e+00   0.0%  0.000e+00        0.0%  0.000e+00   0.0% 
 3:    siesta_solve: 1.0128e-02   0.0%  0.0000e+00   0.0%  0.000e+00   0.0%  0.000e+00        0.0%  0.000e+00   0.0% 
 4:    siesta2qetsc: 3.7962e-01   0.1%  0.0000e+00   0.0%  4.030e+03   1.2%  2.229e+00        0.0%  6.900e+01   0.7% 
 5: qetsc_setup_eps: 2.3721e+01   5.9%  1.5571e+08   0.1%  6.981e+04  20.9%  6.366e+03       92.7%  5.400e+01   0.6% 
 6: qetsc_solve_eps: 2.6218e+02  65.7%  2.6324e+11  99.9%  8.060e+02   0.2%  1.451e-02        0.0%  1.040e+02   1.1% 
 7:   qetsc_eigvals: 9.1831e-02   0.0%  0.0000e+00   0.0%  0.000e+00   0.0%  0.000e+00        0.0%  0.000e+00   0.0% 
 8:   qetsc_density: 2.6616e+01   6.7%  0.0000e+00   0.0%  2.588e+05  77.6%  4.994e+02        7.3%  9.180e+03  97.6% 
10:     siesta_misc: 5.6578e+01  14.2%  0.0000e+00   0.0%  0.000e+00   0.0%  0.000e+00        0.0%  0.000e+00   0.0% 
11:     siesta_move: 1.1322e-01   0.0%  0.0000e+00   0.0%  0.000e+00   0.0%  0.000e+00        0.0%  0.000e+00   0.0% 
12: siesta_analysis: 3.7773e-02   0.0%  0.0000e+00   0.0%  0.000e+00   0.0%  0.000e+00        0.0%  0.000e+00   0.0% 
13:     qetsc_clean: 3.4798e-06   0.0%  0.0000e+00   0.0%  0.000e+00   0.0%  0.000e+00        0.0%  0.000e+00   0.0% 
14:      siesta_end: 9.7870e-01   0.2%  0.0000e+00   0.0%  0.000e+00   0.0%  0.000e+00        0.0%  0.000e+00   0.0% 

------------------------------------------------------------------------------------------------------------------------
See the 'Profiling' chapter of the users' manual for details on interpreting output.
Phase summary info:
   Count: number of times phase was executed
   Time and Flops: Max - maximum over all processors
                   Ratio - ratio of maximum to minimum over all processors
   Mess: number of messages sent
   Avg. len: average message length (bytes)
   Reduct: number of global reductions
   Global: entire computation
   Stage: stages of a computation. Set stages with PetscLogStagePush() and PetscLogStagePop().
      %T - percent time in this phase         %F - percent flops in this phase
      %M - percent messages in this phase     %L - percent message lengths in this phase
      %R - percent reductions in this phase
   Total Mflop/s: 10e-6 * (sum of flops over all processors)/(max time over all processors)
------------------------------------------------------------------------------------------------------------------------
Event                Count      Time (sec)     Flops                             --- Global ---  --- Stage ---   Total
                   Max Ratio  Max     Ratio   Max  Ratio  Mess   Avg len Reduct  %T %F %M %L %R  %T %F %M %L %R Mflop/s
------------------------------------------------------------------------------------------------------------------------

--- Event Stage 0: Main Stage


--- Event Stage 1: siesta_init


--- Event Stage 2: siesta_forces


--- Event Stage 3: siesta_solve


--- Event Stage 4: siesta2qetsc

MatConvert             2 1.0 1.4288e-03 1.2 0.00e+00 0.0 0.0e+00 0.0e+00 0.0e+00  0  0  0  0  0   0  0  0  0  0     0
MatAssemblyBegin      14 1.0 3.0881e-0157.7 0.00e+00 0.0 0.0e+00 0.0e+00 5.6e+01  0  0  0  0  1  45  0  0  0 81     0
MatAssemblyEnd        14 1.0 7.7291e-03 1.0 0.00e+00 0.0 4.0e+03 1.8e+02 1.1e+01  0  0  1  0  0   2  0100100 16     0
VecSet                 3 1.0 1.6804e-05 1.7 0.00e+00 0.0 0.0e+00 0.0e+00 0.0e+00  0  0  0  0  0   0  0  0  0  0     0

--- Event Stage 5: qetsc_setup_eps

MatCholFctrSym         1 1.0 1.1154e+00 1.0 0.00e+00 0.0 0.0e+00 0.0e+00 0.0e+00  0  0  0  0  0   5  0  0  0  0     0
MatCholFctrNum         6 1.0 1.8081e+01 1.1 0.00e+00 0.0 0.0e+00 0.0e+00 0.0e+00  4  0  0  0  0  72  0  0  0  0     0
MatCopy               16 1.0 7.0105e-01 1.1 0.00e+00 0.0 0.0e+00 0.0e+00 0.0e+00  0  0  0  0  0   3  0  0  0  0     0
MatConvert             4 1.0 3.5306e-02 2.5 0.00e+00 0.0 0.0e+00 0.0e+00 0.0e+00  0  0  0  0  0   0  0  0  0  0     0
MatScale              24 1.0 2.6577e-02 8.1 4.87e+06 1.0 0.0e+00 0.0e+00 0.0e+00  0  0  0  0  0   0100  0  0  0  5859
MatAssemblyBegin      25 1.0 8.5930e-05 2.3 0.00e+00 0.0 0.0e+00 0.0e+00 0.0e+00  0  0  0  0  0   0  0  0  0  0     0
MatAssemblyEnd        25 1.0 1.1685e-01 1.4 0.00e+00 0.0 0.0e+00 0.0e+00 0.0e+00  0  0  0  0  0   0  0  0  0  0     0
MatGetRow          50048 1.0 5.0574e-01 1.0 0.00e+00 0.0 0.0e+00 0.0e+00 0.0e+00  0  0  0  0  0   2  0  0  0  0     0
MatGetRowIJ            1 1.0 4.3813e-06 3.9 0.00e+00 0.0 0.0e+00 0.0e+00 0.0e+00  0  0  0  0  0   0  0  0  0  0     0
MatGetSubMatrice      14 1.0 1.6001e+00 1.1 0.00e+00 0.0 6.9e+04 3.1e+04 2.8e+01  0  0 21 93  0   6  0 99100 52     0
MatGetOrdering         1 1.0 5.0612e-04 1.9 0.00e+00 0.0 0.0e+00 0.0e+00 0.0e+00  0  0  0  0  0   0  0  0  0  0     0
MatZeroEntries         5 1.0 1.3110e-02 1.2 0.00e+00 0.0 0.0e+00 0.0e+00 0.0e+00  0  0  0  0  0   0  0  0  0  0     0
MatAXPY               18 1.0 1.6337e+00 1.0 0.00e+00 0.0 0.0e+00 0.0e+00 0.0e+00  0  0  0  0  0   7  0  0  0  0     0
MatRedundantMat       14 1.0 1.6416e+00 1.1 0.00e+00 0.0 6.9e+04 3.1e+04 2.8e+01  0  0 21 93  0   7  0 99100 52     0
VecSet                22 1.0 1.2202e-03 3.9 0.00e+00 0.0 0.0e+00 0.0e+00 0.0e+00  0  0  0  0  0   0  0  0  0  0     0
EPSSetUp               6 1.0 2.2354e+01 1.0 0.00e+00 0.0 1.0e+04 2.9e+04 2.8e+01  6  0  3 13  0  94  0 15 14 52     0
STSetUp               12 1.0 2.1412e+01 1.1 0.00e+00 0.0 0.0e+00 0.0e+00 2.0e+00  5  0  0  0  0  86  0  0  0  4     0
KSPSetUp               6 1.0 1.4282e-05 1.7 0.00e+00 0.0 0.0e+00 0.0e+00 0.0e+00  0  0  0  0  0   0  0  0  0  0     0
PCSetUp                6 1.0 1.9171e+01 1.1 0.00e+00 0.0 0.0e+00 0.0e+00 0.0e+00  5  0  0  0  0  77  0  0  0  0     0

--- Event Stage 6: qetsc_solve_eps

MatMult             6289 0.0 5.1566e+01 0.0 1.01e+10 0.0 0.0e+00 0.0e+00 0.0e+00  8 78  0  0  0  13 78  0  0  0  3985
MatSolve            2433 0.0 9.6670e+01 0.0 0.00e+00 0.0 0.0e+00 0.0e+00 0.0e+00 15  0  0  0  0  23  0  0  0  0     0
MatCholFctrNum        20 1.7 5.4653e+01 1.6 0.00e+00 0.0 0.0e+00 0.0e+00 0.0e+00 10  0  0  0  0  15  0  0  0  0     0
MatCopy               20 1.7 2.6249e+00 1.7 0.00e+00 0.0 0.0e+00 0.0e+00 0.0e+00  0  0  0  0  0   1  0  0  0  0     0
MatAssemblyBegin      40 1.7 3.9631e-05 1.7 0.00e+00 0.0 0.0e+00 0.0e+00 0.0e+00  0  0  0  0  0   0  0  0  0  0     0
MatAssemblyEnd        40 1.7 1.3687e-01 1.6 0.00e+00 0.0 0.0e+00 0.0e+00 0.0e+00  0  0  0  0  0   0  0  0  0  0     0
MatGetRow         176640 1.7 1.7706e+00 1.7 0.00e+00 0.0 0.0e+00 0.0e+00 0.0e+00  0  0  0  0  0   0  0  0  0  0     0
MatZeroEntries        20 1.7 3.4561e-02 1.2 0.00e+00 0.0 0.0e+00 0.0e+00 0.0e+00  0  0  0  0  0   0  0  0  0  0     0
MatAXPY               20 1.7 5.1537e+00 1.7 0.00e+00 0.0 0.0e+00 0.0e+00 0.0e+00  1  0  0  0  0   1  0  0  0  0     0
VecDot               454 0.0 6.7817e-03 0.0 2.67e+06 0.0 0.0e+00 0.0e+00 0.0e+00  0  0  0  0  0   0  0  0  0  0  5778
VecCopy             2669 0.0 2.2809e-02 0.0 0.00e+00 0.0 0.0e+00 0.0e+00 0.0e+00  0  0  0  0  0   0  0  0  0  0     0
VecSet              8851226.9 7.5499e-02282.9 0.00e+00 0.0 0.0e+00 0.0e+00 0.0e+00  0  0  0  0  0   0  0  0  0  0     0
VecSetRandom          13 0.0 2.2890e-02 0.0 0.00e+00 0.0 0.0e+00 0.0e+00 0.0e+00  0  0  0  0  0   0  0  0  0  0     0
EPSSetUp              13 1.0 4.7078e+01 1.0 0.00e+00 0.0 8.1e+02 6.0e+00 2.6e+01 12  0  0  0  0  18  0100100 25     0
EPSSolve              13 1.0 2.6226e+02 1.0 1.31e+10 0.0 8.1e+02 6.0e+00 1.0e+02 66100  0  0  1 100100100100100  1004
STSetUp               20 1.0 2.3886e+01 1.1 0.00e+00 0.0 0.0e+00 0.0e+00 0.0e+00  6  0  0  0  0   9  0  0  0  0     0
STApply             2433 0.0 1.1698e+02 0.0 3.92e+09 0.0 0.0e+00 0.0e+00 0.0e+00 19 29  0  0  0  28 29  0  0  0   658
STMatSolve          2433 0.0 9.7113e+01 0.0 0.00e+00 0.0 0.0e+00 0.0e+00 0.0e+00 16  0  0  0  0  24  0  0  0  0     0
KSPSetUp              20 1.7 3.6086e-05 2.7 0.00e+00 0.0 0.0e+00 0.0e+00 0.0e+00  0  0  0  0  0   0  0  0  0  0     0
KSPSolve            2433 0.0 9.6809e+01 0.0 0.00e+00 0.0 0.0e+00 0.0e+00 0.0e+00 15  0  0  0  0  24  0  0  0  0     0
PCSetUp               20 1.7 5.4653e+01 1.6 0.00e+00 0.0 0.0e+00 0.0e+00 0.0e+00 10  0  0  0  0  15  0  0  0  0     0
PCApply             2433 0.0 9.6686e+01 0.0 0.00e+00 0.0 0.0e+00 0.0e+00 0.0e+00 15  0  0  0  0  23  0  0  0  0     0
BVCreate              33 0.0 2.5157e-02 0.0 0.00e+00 0.0 0.0e+00 0.0e+00 0.0e+00  0  0  0  0  0   0  0  0  0  0     0
BVCopy               303 0.0 2.9410e-03 0.0 0.00e+00 0.0 0.0e+00 0.0e+00 0.0e+00  0  0  0  0  0   0  0  0  0  0     0
BVMultVec           3422 0.0 1.2382e+00 0.0 1.10e+09 0.0 0.0e+00 0.0e+00 0.0e+00  0  8  0  0  0   0  8  0  0  0 16517
BVMultInPlace         65 0.0 3.7142e-01 0.0 7.93e+08 0.0 0.0e+00 0.0e+00 0.0e+00  0  6  0  0  0   0  6  0  0  0 43756
BVDotVec            3422 0.0 2.9108e+01 0.0 6.64e+09 0.0 0.0e+00 0.0e+00 0.0e+00  5 53  0  0  0   7 53  0  0  0  4763
BVOrthogonalizeV    2035 0.0 3.0292e+01 0.0 7.74e+09 0.0 0.0e+00 0.0e+00 0.0e+00  5 60  0  0  0   8 60  0  0  0  5252
BVScale             2433 0.0 2.6962e-02 0.0 7.16e+06 0.0 0.0e+00 0.0e+00 0.0e+00  0  0  0  0  0   0  0  0  0  0  5210
BVNormVec            454 0.0 3.7073e+00 0.0 7.35e+08 0.0 0.0e+00 0.0e+00 0.0e+00  0  4  0  0  0   1  4  0  0  0  2907
BVSetRandom           13 0.0 2.3010e-02 0.0 0.00e+00 0.0 0.0e+00 0.0e+00 0.0e+00  0  0  0  0  0   0  0  0  0  0     0
DSSolve               62 0.0 3.8934e-01 0.0 0.00e+00 0.0 0.0e+00 0.0e+00 0.0e+00  0  0  0  0  0   0  0  0  0  0     0
DSVectors           2841 0.0 6.6977e-03 0.0 0.00e+00 0.0 0.0e+00 0.0e+00 0.0e+00  0  0  0  0  0   0  0  0  0  0     0
DSOther               65 0.0 1.2516e-02 0.0 0.00e+00 0.0 0.0e+00 0.0e+00 0.0e+00  0  0  0  0  0   0  0  0  0  0     0

--- Event Stage 7: qetsc_eigvals


--- Event Stage 8: qetsc_density

VecCopy             6656 1.0 1.8713e-02 1.2 0.00e+00 0.0 0.0e+00 0.0e+00 0.0e+00  0  0  0  0  0   0  0  0  0  0     0
VecSet                 1 1.0 5.2756e-06 1.1 0.00e+00 0.0 0.0e+00 0.0e+00 0.0e+00  0  0  0  0  0   0  0  0  0  0     0
VecScatterBegin    13312 1.0 3.3984e+00 3.4 0.00e+00 0.0 2.1e+05 7.4e+02 6.7e+03  1  0 62  7 71   8  0 80 91 73     0
VecScatterEnd       6656 1.0 1.2866e+00 1.1 0.00e+00 0.0 0.0e+00 0.0e+00 0.0e+00  0  0  0  0  0   5  0  0  0  0     0
BVCopy              6656 1.0 5.0109e-02 1.1 0.00e+00 0.0 0.0e+00 0.0e+00 0.0e+00  0  0  0  0  0   0  0  0  0  0     0

--- Event Stage 9: Unknown


--- Event Stage 10: siesta_misc


--- Event Stage 11: siesta_move


--- Event Stage 12: siesta_analysis


--- Event Stage 13: qetsc_clean


--- Event Stage 14: siesta_end

------------------------------------------------------------------------------------------------------------------------

Memory usage is given in bytes:

Object Type          Creations   Destructions     Memory  Descendants' Mem.
Reports information only for process 0.

--- Event Stage 0: Main Stage


--- Event Stage 1: siesta_init


--- Event Stage 2: siesta_forces


--- Event Stage 3: siesta_solve


--- Event Stage 4: siesta2qetsc

              Matrix     9              0            0     0.
              Vector    19              1         1648     0.
      Vector Scatter     4              0            0     0.
           Index Set     4              4        44200     0.

--- Event Stage 5: qetsc_setup_eps

              Matrix    14              6     38346736     0.
              Vector    43             25       391480     0.
           Index Set    36             29        22736     0.
          EPS Solver     2              0            0     0.
  Spectral Transform     2              0            0     0.
       Krylov Solver     2              0            0     0.
      Preconditioner     2              0            0     0.
       Basis Vectors     8              5         5280     0.
         PetscRandom     1              0            0     0.
              Region     2              0            0     0.
       Direct Solver     2              0            0     0.

--- Event Stage 6: qetsc_solve_eps

              Matrix    12             12     78315408     0.
              Vector    65             65      1017848     0.
       Basis Vectors    13             13        13728     0.

--- Event Stage 7: qetsc_eigvals


--- Event Stage 8: qetsc_density

              Vector    14             13       327600     0.
      Vector Scatter   417            416       455520     0.
           Index Set   833            833       959248     0.

--- Event Stage 9: Unknown


--- Event Stage 10: siesta_misc


--- Event Stage 11: siesta_move

              Matrix     0             17     49498544     0.
              Vector     0             37      2638792     0.
      Vector Scatter     0              5         4944     0.
           Index Set     0              7        17264     0.
          EPS Solver     0              2        31772     0.
  Spectral Transform     0              2         1632     0.
       Krylov Solver     0              2         2336     0.
      Preconditioner     0              2         1952     0.
       Basis Vectors     0              3         3168     0.
         PetscRandom     0              1          638     0.
              Region     0              2         1312     0.
       Direct Solver     0              2       109992     0.

--- Event Stage 12: siesta_analysis


--- Event Stage 13: qetsc_clean


--- Event Stage 14: siesta_end

              Viewer     1              0            0     0.
========================================================================================================================
Average time to get PetscTime(): 1.24438e-07
Average time for MPI_Barrier(): 2.83375e-06
Average time for zero size MPI_Send(): 1.10828e-05
#PETSc Option Table entries:
-eps_interval -2.3,0.
-eps_krylovschur_detect_zeros 0
-eps_krylovschur_partitions 32
-ioptbin 7
-ioptdensity 0
-ioptinertia 1
-ioptleft 2
-log_view
-mat_mumps_cntl_3 1e-12
-mat_mumps_icntl_13 1
-mat_mumps_icntl_23 0
-mat_mumps_icntl_24 1
-mat_mumps_icntl_7 5
-mat_type mpisbaij
-roptbuffer 0.1
-roptdiff 0.02
-writeeigs 1
#End of PETSc Option Table entries
Compiled with FORTRAN kernels
Compiled with full precision matrices (default)
sizeof(short) 2 sizeof(int) 4 sizeof(long) 8 sizeof(void*) 8 sizeof(PetscScalar) 8 sizeof(PetscInt) 4
Configure options: --known-has-attribute-aligned=1 --download-chaco=0 --download-cmake=0 --download-hypre=0 --download-metis=1 --download-mumps=1 --download-parmetis=1 --download-plapack=0 --download-prometheus=0 --download-ptscotch=1 --download-spai=0 --download-spooles=0 --download-superlu=0 --download-superlu_dist=0 --download-triangle=0 --known-bits-per-byte=8 --known-level1-dcache-assoc=0 --known-level1-dcache-linesize=32 --known-level1-dcache-size=32768 --known-memcmp-ok=1 --known-mpi-c-double-complex=1 --known-mpi-int64_t=1 --known-mpi-long-double=1 --known-mpi-shared-libraries=0 --known-sdot-returns-double=0 --known-sizeof-MPI_Comm=4 --known-sizeof-MPI_Fint=4 --known-sizeof-char=1 --known-sizeof-double=8 --known-sizeof-float=4 --known-sizeof-int=4 --known-sizeof-long-long=8 --known-sizeof-long=8 --known-sizeof-short=2 --known-sizeof-size_t=8 --known-sizeof-void-p=8 --known-snrm2-returns-double=0 --with-batch=1 --with-blacs-include=/soft/libraries/alcf/current/xl/SCALAPACK/ --with-blacs-lib=/soft/libraries/alcf/current/xl/SCALAPACK/lib/libscalapack.a --with-blas-lapack-lib="-L/soft/libraries/alcf/current/xl/LAPACK/lib -llapack -L/soft/libraries/alcf/current/xl/BLAS/lib -lblas" --with-cc=mpixlc_r --with-clib-autodetect=0 --with-cxx=mpixlcxx_r --with-cxxlib-autodetect=0 --with-debugging=0 --with-fc="mpixlf77_r -qnosave" --with-fortran-kernels=1 --with-fortranlib-autodetect=0 --with-is-color-value-type=short --with-scalapack-include=/soft/libraries/alcf/current/xl/SCALAPACK/ --with-scalapack-lib=/soft/libraries/alcf/current/xl/SCALAPACK/lib/libscalapack.a --with-shared-libraries=0 --with-x=0 -COPTFLAGS=" -g -O3 -qhot=level=0 -qsimd=auto -qmaxmem=-1 -qstrict -qstrict_induction" -CXXOPTFLAGS="  -g -O3 -qhot=level=0 -qsimd=auto -qmaxmem=-1 -qstrict -qstrict_induction" -FOPTFLAGS=" -g -O3 -qhot=level=0 -qsimd=auto -qmaxmem=-1 -qstrict -qstrict_induction" LIBS="-lmpichcxx-gcc -lmpichf77-gcc -L/soft/compilers/ibmcmp-feb2015/vacpp/bg/12.1/bglib64 -libmc++ -L/soft/compilers/ibmcmp-feb2015/xlf/bg/14.1/bglib64 -lxlf90_r -lxlomp_ser -lxlfmath" PETSC_ARCH=arch-xl
-----------------------------------------
Libraries compiled on Sat Aug 20 04:19:47 2016 on vestalac2 
Machine characteristics: Linux-2.6.32-573.18.1.el6.ppc64-ppc64-with-redhat-6.7-Santiago
Using PETSc directory: /home/keceli/scratch2/petsc
Using PETSc arch: arch-xl
-----------------------------------------

Using C compiler: mpixlc_r   -g -O3 -qhot=level=0 -qsimd=auto -qmaxmem=-1 -qstrict -qstrict_induction  ${COPTFLAGS} ${CFLAGS}
Using Fortran compiler: mpixlf77_r -qnosave  -g -O3 -qhot=level=0 -qsimd=auto -qmaxmem=-1 -qstrict -qstrict_induction   ${FOPTFLAGS} ${FFLAGS} 
-----------------------------------------

Using include paths: -I/home/keceli/scratch2/petsc/arch-xl/include -I/home/keceli/scratch2/petsc/include -I/home/keceli/scratch2/petsc/include -I/home/keceli/scratch2/petsc/arch-xl/include -I/bgsys/drivers/V1R2M4/ppc64/comm/include -I/bgsys/drivers/V1R2M4/ppc64/comm/lib/xl -I/bgsys/drivers/V1R2M4/ppc64 -I/bgsys/drivers/V1R2M4/ppc64/comm/sys/include -I/bgsys/drivers/V1R2M4/ppc64/spi/include -I/bgsys/drivers/V1R2M4/ppc64/spi/include/kernel/cnk
-----------------------------------------

Using C linker: mpixlc_r
Using Fortran linker: mpixlf77_r -qnosave
Using libraries: -Wl,-rpath,/home/keceli/scratch2/petsc/arch-xl/lib -L/home/keceli/scratch2/petsc/arch-xl/lib -lpetsc -Wl,-rpath,/home/keceli/scratch2/petsc/arch-xl/lib -L/home/keceli/scratch2/petsc/arch-xl/lib -lcmumps -ldmumps -lsmumps -lzmumps -lmumps_common -lpord -Wl,-rpath,/soft/libraries/alcf/current/xl/SCALAPACK/lib -L/soft/libraries/alcf/current/xl/SCALAPACK/lib -lscalapack -L/soft/libraries/alcf/current/xl/LAPACK/lib -llapack -L/soft/libraries/alcf/current/xl/BLAS/lib -lblas -lparmetis -lmetis -lptesmumps -lptscotch -lptscotcherr -lscotch -lscotcherr -lrt -lm -lpthread -ldl -lmpichcxx-gcc -lmpichf77-gcc -L/soft/compilers/ibmcmp-feb2015/vacpp/bg/12.1/bglib64 -libmc++ -L/soft/compilers/ibmcmp-feb2015/xlf/bg/14.1/bglib64 -lxlf90_r -lxlomp_ser -lxlfmath
-----------------------------------------

