s.subSiesta: Submission time = 54s16m13h
s.subSiesta: Job name = qw128_s16_n1_c16_vesta
s.subSiesta: Number of nodes = 1
s.subSiesta: Number of cores = 16
s.subSiesta: Number of cores/node = 16
s.subSiesta: Number of slices = 16
s.subSiesta: Mapping = ABCDET
54s16m13h
#QETSc options
-ioptbin 7
-ioptdensity 0
-ioptinertia 1
-ioptleft 2
-roptbuffer 0.1
-roptdiff 0.02
-writeeigs 1

#PETSc options
-mat_type mpisbaij
-log_view
#-mat_view
#-memory_view
#-mat_mumps_icntl_13 1 #turn off scaLAPACK for matrix inertia
#-mat_mumps_icntl_24 1 #null pivot row detection for matrix inertia
-mat_mumps_icntl_23 0
#-mat_mumps_icntl_28 1 # serial analysis
#-mat_mumps_icntl_28 2 #parallel analysis
#-mat_mumps_icntl_29 1 #ptscotch
#-mat_mumps_icntl_29 2 #parmetis
-mat_mumps_icntl_7 5 #metis
#-malloc_info 
#-mat_view ::ascii_info 
#-mat_getrow_uppertriangular 1
#-st_type sinvert 
#-st_ksp_type preonly 
#-st_pc_type cholesky 
#-st_pc_factor_mat_solver_package mumps 

#SLEPc options

#-eps_krylovschur_partitions 1  
-eps_interval -2.3,0.
#-eps_tol  1.e-8
-eps_krylovschur_detect_zeros 0
#-eps_purify 1
SystemName liquid_D2O_128
SystemLabel D2O_128

#UseTreeTimer .true.
DM.MixingWeight 0.3
DM.NumberPulay 3

SolutionMethod  qetsc #slepc0 for the older method
#SolutionMethod diagon
#BlockSize 23
WriteDM .false.
WriteDM.NetCDF .false.
WriteDMHS.NetCDF .false.
LongOutput .false.

#MaxSCFIterations 2
##################################################
# Do not change below this line                  #
##################################################

%block SuperCell
1 0 0
0 1 0
0 0 1
%endblock SuperCell

NumberOfAtoms 384
NumberOfSpecies 2

xc.functional GGA
xc.authors PBE 
MeshCutoff 150.0 Ry

%block ChemicalSpeciesLabel
  1   8  O
  2   1  H  
%endblock ChemicalSpeciesLabel

#%block AtomicMass
#  2   2.0
#%endblock AtomicMass

%Block PAO.Basis
O    3     -0.24233
n=2   0   2   E    23.36061     3.39721
     4.50769     2.64066
     1.00000     1.00000
n=2   1   2   E     2.78334     5.14253
     6.14996     2.59356
     1.00000     1.00000
n=3   2   1   E    63.98188     0.16104
     3.54403
     1.00000
H    2      0.46527
n=1   0   2   E    99.93138     2.59932
     4.20357     1.84463
     1.00000     1.00000
n=2   1   1   E    24.56504     2.20231
     3.52816
     1.00000
%EndBlock PAO.Basis

LatticeConstant 15.646046088993955 Ang
%block LatticeVectors   
  1.0  0.0  0.0
  0.0  1.0  0.0
  0.0  0.0  1.0
%endblock LatticeVectors   

AtomicCoordinatesFormat NotScaledCartesianAng
%block AtomicCoordinatesAndAtomicSpecies < coord128.data

Siesta Version: siesta-trunk-492
Architecture  : powerpc64-unknown-linux-gnu--Xlf
Compiler flags: mpixlf90_r -I/home/keceli/scratch2/petsc/include -I/home/keceli/scratch2/petssc/arch-xl/include -I/bgsys/drivers/V1R2M4/ppc64/comm/include -I/bgsys/drivers/V1R2M4/ppc64/comm/lib/xl -I/bgsys/drivers/V1R2M4/ppc64 -I/bgsys/drivers/V1R2M4/ppc64/comm/sys/include -I/bgsys/drivers/V1R2M4/ppc64/spi/include -I/bgsys/drivers/V1R2M4/ppc64/spi/include/kernel/cnk -I/home/keceli/scratch2/slepcfork/include -I/home/keceli/scratch2/slepcfork/arch-xl/include
PP flags      : -WF,-DMPI -WF,-DFC_HAVE_ABORT -WF,-DBSC_CELLXC -WF,-DMPI_TIMING 
PARALLEL version

* Running on   16 nodes in parallel
>> Start of run:  12-JAN-2017  13:17:46

                           ***********************       
                           *  WELCOME TO SIESTA  *       
                           ***********************       
WARNING: Siesta is reading its input from file INPUT_DEBUG

reinit: -----------------------------------------------------------------------
reinit: System Name: liquid_D2O_128
reinit: -----------------------------------------------------------------------
reinit: System Label: D2O_128                                                     
reinit: -----------------------------------------------------------------------

initatom: Reading input for the pseudopotentials and atomic orbitals ----------
Species number:   1 Atomic number:    8 Label: O
Species number:   2 Atomic number:    1 Label: H
 
Ground state valence configuration:   2s02  2p04
Reading pseudopotential information in formatted form from O.psf

Valence configuration for pseudopotential generation:
2s( 2.00) rc: 1.14
2p( 4.00) rc: 1.14
3d( 0.00) rc: 1.14
4f( 0.00) rc: 1.14
Ground state valence configuration:   1s01
Reading pseudopotential information in formatted form from H.psf

Valence configuration for pseudopotential generation:
1s( 0.60) rc: 1.25
2p( 0.00) rc: 1.25
3d( 0.00) rc: 1.25
4f( 0.00) rc: 1.25
For O, standard SIESTA heuristics set lmxkb to 3
 (one more than the basis l, including polarization orbitals).
Use PS.lmax or PS.KBprojectors blocks to override.
For H, standard SIESTA heuristics set lmxkb to 2
 (one more than the basis l, including polarization orbitals).
Use PS.lmax or PS.KBprojectors blocks to override.

<basis_specs>
===============================================================================
O                    Z=   8    Mass=  16.000        Charge=-0.24233    
Lmxo=2 Lmxkb= 3    BasisType=split      Semic=F
L=0  Nsemic=0  Cnfigmx=2
          n=1  nzeta=2  polorb=0
            splnorm:   0.15000    
               vcte:    23.361    
               rinn:    3.3972    
               qcoe:    0.0000    
               qyuk:    0.0000    
               qwid:   0.10000E-01
                rcs:    4.5077      2.6407    
            lambdas:    1.0000      1.0000    
L=1  Nsemic=0  Cnfigmx=2
          n=1  nzeta=2  polorb=0
            splnorm:   0.15000    
               vcte:    2.7833    
               rinn:    5.1425    
               qcoe:    0.0000    
               qyuk:    0.0000    
               qwid:   0.10000E-01
                rcs:    6.1500      2.5936    
            lambdas:    1.0000      1.0000    
L=2  Nsemic=0  Cnfigmx=3
          n=1  nzeta=1  polorb=0
            splnorm:   0.15000    
               vcte:    63.982    
               rinn:   0.16104    
               qcoe:    0.0000    
               qyuk:    0.0000    
               qwid:   0.10000E-01
                rcs:    3.5440    
            lambdas:    1.0000    
-------------------------------------------------------------------------------
L=0  Nkbl=1  erefs: 0.17977+309
L=1  Nkbl=1  erefs: 0.17977+309
L=2  Nkbl=1  erefs: 0.17977+309
L=3  Nkbl=1  erefs: 0.17977+309
===============================================================================
</basis_specs>

atom: Called for O                     (Z =   8)

read_vps: Pseudopotential generation method:
read_vps: ATM3      Troullier-Martins                       
Total valence charge:    6.00000

read_vps: Pseudopotential includes a core correction:
read_vps: Pseudo-core for xc-correction

xc_check: Exchange-correlation functional:
xc_check: GGA Perdew, Burke & Ernzerhof 1996
V l=0 = -2*Zval/r beyond r=  1.1278
V l=1 = -2*Zval/r beyond r=  1.1278
V l=2 = -2*Zval/r beyond r=  1.1278
V l=3 = -2*Zval/r beyond r=  1.1278
All V_l potentials equal beyond r=  1.1278
This should be close to max(r_c) in ps generation
All pots = -2*Zval/r beyond r=  1.1278

VLOCAL1: 99.0% of the norm of Vloc inside     34.126 Ry
VLOCAL1: 99.9% of the norm of Vloc inside     77.774 Ry
atom: Maximum radius for 4*pi*r*r*local-pseudopot. charge    1.37759
atom: Maximum radius for r*vlocal+2*Zval:    1.18566
GHOST: No ghost state for L =  0
GHOST: No ghost state for L =  1
GHOST: No ghost state for L =  2
GHOST: No ghost state for L =  3

KBgen: Kleinman-Bylander projectors: 
   l= 0   rc=  1.262145   el= -1.757696   Ekb=  9.253654   kbcos=  0.328369
   l= 1   rc=  1.262145   el= -0.664256   Ekb= -7.897175   kbcos= -0.393093
   l= 2   rc=  1.343567   el=  0.002031   Ekb= -1.922379   kbcos= -0.003517
   l= 3   rc=  1.394919   el=  0.003153   Ekb= -0.738278   kbcos= -0.000358

KBgen: Total number of  Kleinman-Bylander projectors:   16
atom: -------------------------------------------------------------------------

atom: SANKEY-TYPE ORBITALS:
atom: Selected multiple-zeta basis: split     

atom: basis set generated (by rescaling the valence charge)
atom: for an anion of charge  -0.2423

SPLIT: Orbitals with angular momentum L= 0

SPLIT: Basis orbitals for state 2s

   izeta = 1
                 lambda =    1.000000
                     rc =    4.574469
                 energy =   -1.754694
                kinetic =    1.490893
    potential(screened) =   -3.245588
       potential(ionic) =  -11.054474

   izeta = 2
                 rmatch =    2.639108
              splitnorm =    0.147036
                 energy =   -1.549986
                kinetic =    2.329570
    potential(screened) =   -3.879556
       potential(ionic) =  -12.328390

SPLIT: Orbitals with angular momentum L= 1

SPLIT: Basis orbitals for state 2p

   izeta = 1
                 lambda =    1.000000
                     rc =    6.174996
                 energy =   -0.657397
                kinetic =    4.283704
    potential(screened) =   -4.941101
       potential(ionic) =  -12.288569

   izeta = 2
                 rmatch =    2.639108
              splitnorm =    0.214885
                 energy =   -0.410839
                kinetic =    7.128014
    potential(screened) =   -7.538853
       potential(ionic) =  -16.113011

SPLIT: Orbitals with angular momentum L= 2

SPLIT: Basis orbitals for state 3d

   izeta = 1
                 lambda =    1.000000
                     rc =    3.562532
                 energy =    3.658838
                kinetic =    6.488135
    potential(screened) =   -2.829297
       potential(ionic) =  -10.001422
atom: Total number of Sankey-type orbitals: 13

atm_pop: Valence configuration (for local Pseudopot. screening):
 2s( 2.00)                                                            
 2p( 4.00)                                                            
 3d( 0.00)                                                            
Vna: chval, zval:    6.00000   6.00000

Vna:  Cut-off radius for the neutral-atom potential:   6.174996
comcore: Pseudo-core radius Rcore=  1.377587

atom: _________________________________________________________________________

<basis_specs>
===============================================================================
H                    Z=   1    Mass=  1.0100        Charge= 0.46527    
Lmxo=1 Lmxkb= 2    BasisType=split      Semic=F
L=0  Nsemic=0  Cnfigmx=1
          n=1  nzeta=2  polorb=0
            splnorm:   0.15000    
               vcte:    99.931    
               rinn:    2.5993    
               qcoe:    0.0000    
               qyuk:    0.0000    
               qwid:   0.10000E-01
                rcs:    4.2036      1.8446    
            lambdas:    1.0000      1.0000    
L=1  Nsemic=0  Cnfigmx=2
          n=1  nzeta=1  polorb=0
            splnorm:   0.15000    
               vcte:    24.565    
               rinn:    2.2023    
               qcoe:    0.0000    
               qyuk:    0.0000    
               qwid:   0.10000E-01
                rcs:    3.5282    
            lambdas:    1.0000    
-------------------------------------------------------------------------------
L=0  Nkbl=1  erefs: 0.17977+309
L=1  Nkbl=1  erefs: 0.17977+309
L=2  Nkbl=1  erefs: 0.17977+309
===============================================================================
</basis_specs>

atom: Called for H                     (Z =   1)

read_vps: Pseudopotential generation method:
read_vps: ATM 3.2.2 Troullier-Martins                       
Total valence charge:    0.60000

atom: Pseudopotential generated from an ionic configuration
atom: with net charge 0.40

xc_check: Exchange-correlation functional:
xc_check: GGA Perdew, Burke & Ernzerhof 1996
xc_check: WARNING: Pseudopotential generated with GGA revPBE functional
V l=0 = -2*Zval/r beyond r=  1.2343
V l=1 = -2*Zval/r beyond r=  1.2189
V l=2 = -2*Zval/r beyond r=  1.2189
All V_l potentials equal beyond r=  1.2343
This should be close to max(r_c) in ps generation
All pots = -2*Zval/r beyond r=  1.2343

VLOCAL1: 99.0% of the norm of Vloc inside     28.493 Ry
VLOCAL1: 99.9% of the norm of Vloc inside     64.935 Ry
atom: Maximum radius for 4*pi*r*r*local-pseudopot. charge    1.45251
atom: Maximum radius for r*vlocal+2*Zval:    1.21892
GHOST: No ghost state for L =  0
GHOST: No ghost state for L =  1
GHOST: No ghost state for L =  2

KBgen: Kleinman-Bylander projectors: 
   l= 0   rc=  1.364359   el= -0.835481   Ekb= -2.050473   kbcos= -0.374935
   l= 1   rc=  1.434438   el= -0.083696   Ekb= -0.439790   kbcos= -0.040392
   l= 2   rc=  1.470814   el= -0.018512   Ekb= -0.135383   kbcos= -0.004767

KBgen: Total number of  Kleinman-Bylander projectors:    9
atom: -------------------------------------------------------------------------

atom: SANKEY-TYPE ORBITALS:
atom: Selected multiple-zeta basis: split     

atom: basis set generated (by rescaling the valence charge)
atom: for a cation of charge   0.4653

SPLIT: Orbitals with angular momentum L= 0

SPLIT: Basis orbitals for state 1s

   izeta = 1
                 lambda =    1.000000
                     rc =    4.260636
                 energy =   -0.844786
                kinetic =    1.360018
    potential(screened) =   -2.204804
       potential(ionic) =   -2.290935

   izeta = 2
                 rmatch =    1.865767
              splitnorm =    0.575404
                 energy =    0.510436
                kinetic =    4.363202
    potential(screened) =   -3.852766
       potential(ionic) =   -3.849391

SPLIT: Orbitals with angular momentum L= 1

SPLIT: Basis orbitals for state 2p

   izeta = 1
                 lambda =    1.000000
                     rc =    3.576223
                 energy =    0.852340
                kinetic =    2.004908
    potential(screened) =   -1.152567
       potential(ionic) =   -1.298457
atom: Total number of Sankey-type orbitals:  5

atm_pop: Valence configuration (for local Pseudopot. screening):
 1s( 1.00)                                                            
 2p( 0.00)                                                            
Vna: chval, zval:    1.00000   1.00000

Vna:  Cut-off radius for the neutral-atom potential:   4.260636

atom: _________________________________________________________________________

prinput: Basis input ----------------------------------------------------------

PAO.BasisType split     

%block ChemicalSpeciesLabel
    1    8 O                       # Species index, atomic number, species label
    2    1 H                       # Species index, atomic number, species label
%endblock ChemicalSpeciesLabel

%block PAO.Basis                 # Define Basis set
O                     3  -0.242            # Label, l-shells, ionic net charge
 n=2   0   2                         # n, l, Nzeta 
   4.574      2.639   
   1.000      1.000   
 n=2   1   2                         # n, l, Nzeta 
   6.175      2.639   
   1.000      1.000   
 n=3   2   1                         # n, l, Nzeta 
   3.563   
   1.000   
H                     2   0.465            # Label, l-shells, ionic net charge
 n=1   0   2                         # n, l, Nzeta 
   4.261      1.866   
   1.000      1.000   
 n=2   1   1                         # n, l, Nzeta 
   3.576   
   1.000   
%endblock PAO.Basis

prinput: ----------------------------------------------------------------------

coor:   Atomic-coordinates input format  =     Cartesian coordinates
coor:                                          (in Angstroms)

siesta: Atomic coordinates (Bohr) and species
siesta:     26.49397   0.45353   4.66763  1        1
siesta:     26.96640   1.47399   3.25033  2        2
siesta:     25.77587   1.62517   5.85815  2        3
siesta:     20.33346  14.00288  21.97752  1        4
siesta:     21.22163  14.47531  20.46574  2        5
siesta:     18.59491  14.07847  21.50509  2        6
siesta:     11.07380   3.60938  13.00132  1        7
siesta:     11.41395   5.36682  12.83125  2        8
siesta:     11.58403   2.89128  11.43285  2        9
siesta:     14.09736  13.00132  25.01998  1       10
siesta:     14.15405  13.00132  26.83412  2       11
siesta:     13.53044  11.33836  24.56645  2       12
siesta:     17.17762   8.63605  20.03110  1       13
siesta:     16.83747   9.24076  18.34925  2       14
siesta:     18.95396   8.86282  20.23897  2       15
siesta:     22.75231   1.79524   9.37305  1       16
siesta:     21.27832   2.30547   8.48487  2       17
siesta:     23.45151   3.32592  10.03445  2       18
siesta:     27.17427  25.60580  26.85302  1       19
siesta:     28.61046  25.54911  27.94906  2       20
siesta:     27.57112  24.43417  25.53021  2       21
siesta:     24.09402  25.03888   4.02512  1       22
siesta:     23.67828  24.96329   2.26767  2       23
siesta:     24.75542  26.70184   4.28968  2       24
siesta:     28.81833  16.93195   4.57314  1       25
siesta:     29.17738  18.65160   4.13850  2       26
siesta:     29.02620  16.00599   3.04246  2       27
siesta:      3.17474   7.14317  26.24831  1       28
siesta:      1.79524   7.97465  25.45462  2       29
siesta:      4.62983   8.12583  25.81367  2       30
siesta:      1.56847   2.39995  27.68450  1       31
siesta:      0.15118   1.90862  26.68294  2       32
siesta:      2.22988   3.85504  26.85302  2       33
siesta:     21.97752   5.87705  29.00731  1       34
siesta:     21.33502   4.25189  28.51598  2       35
siesta:     21.18384   7.02978  27.87347  2       36
siesta:      2.81569  25.05778  28.47818  1       37
siesta:      3.53379  25.98374  29.85768  2       38
siesta:      3.38261  23.35702  28.74275  2       39
siesta:      2.05980   4.45976  19.10514  1       40
siesta:      0.77479   4.66763  17.83902  2       41
siesta:      3.36371   5.61249  18.61381  2       42
siesta:      9.12738  25.19006  29.38525  1       43
siesta:     10.37460  24.79322  28.13803  2       44
siesta:      7.54001  24.81211  28.59157  2       45
siesta:     20.99487   3.64717  16.91306  1       46
siesta:     19.33191   3.02356  17.30990  2       47
siesta:     21.78855   3.83615  18.51932  2       48
siesta:      2.04091  15.04223  21.58068  1       49
siesta:      1.11494  13.51155  21.42950  2       50
siesta:      2.47554  15.13671  23.33813  2       51
siesta:     16.47842   9.58092   2.28657  1       52
siesta:     17.95241   9.54312   3.34482  2       53
siesta:     16.74298  10.97931   1.19053  2       54
siesta:     25.90816   8.05024   4.72432  1       55
siesta:     26.00264   7.02978   6.21720  2       56
siesta:     26.55066   6.99199   3.40151  2       57
siesta:     10.56357  15.04223  21.08935  1       58
siesta:     12.32102  14.72097  21.37281  2       59
siesta:      9.80768  13.41706  21.08935  2       60
siesta:      7.97465  10.88483  12.77455  1       61
siesta:      7.02978   9.93996  11.56513  2       62
siesta:      7.36993  10.33681  14.38082  2       63
siesta:      2.30547  13.43596   7.38883  1       64
siesta:      1.58737  14.41862   6.04713  2       65
siesta:      2.83459  14.64538   8.61715  2       66
siesta:     12.66117   3.38261   7.67229  1       67
siesta:     12.30212   2.05980   6.50066  2       68
siesta:     12.49109   4.91329   6.70853  2       69
siesta:     26.55066   6.27389   9.44863  1       70
siesta:     25.43572   7.59670   9.95886  2       71
siesta:     28.19473   6.99199   9.59981  2       72
siesta:      7.89906   4.51645   3.28812  1       73
siesta:      8.86282   3.19364   4.06291  2       74
siesta:      6.29279   3.74166   2.91018  2       75
siesta:     28.85613  22.79011   3.74166  1       76
siesta:     27.43883  23.79166   4.25189  2       77
siesta:     30.29232  23.82946   4.08181  2       78
siesta:     15.38238  23.18695   9.52422  1       79
siesta:     16.47842  22.63893  10.84703  2       80
siesta:     16.47842  23.82946   8.23921  2       81
siesta:     23.64048  15.23120  17.51777  1       82
siesta:     24.35858  13.64383  17.08313  2       83
siesta:     24.45307  16.42173  16.42173  2       84
siesta:     23.45151   9.97776  10.90372  1       85
siesta:     21.73186   9.46753  11.13049  2       86
siesta:     23.39482  11.77300  11.01711  2       87
siesta:     11.01711   5.66918  18.25476  1       88
siesta:     11.41395   5.40462  16.49732  2       89
siesta:     11.09270   4.02512  18.97286  2       90
siesta:     22.35547  25.05778  19.72875  1       91
siesta:     21.20274  24.71763  21.08935  2       92
siesta:     23.43261  23.62159  19.67206  2       93
siesta:     21.76965  16.79967  27.74119  1       94
siesta:     21.46730  17.95241  26.38059  2       95
siesta:     22.80900  17.72564  28.89392  2       96
siesta:     21.59958  19.29411  23.22474  1       97
siesta:     20.42795  18.14138  22.44996  2       98
siesta:     23.22474  18.50043  22.99798  2       99
siesta:     20.22008   7.36993   4.81880  1      100
siesta:     21.71296   8.22031   5.40462  2      101
siesta:     20.71141   6.61404   3.25033  2      102
siesta:     16.42173   1.88973   2.19208  1      103
siesta:     15.79812   3.17474   1.07714  2      104
siesta:     14.94774   1.09604   2.85349  2      105
siesta:      8.46598  10.63916   3.53379  1      106
siesta:      9.24076  10.97931   1.94642  2      107
siesta:      8.84392  12.09425   4.55424  2      108
siesta:     17.10203  15.02333  29.66871  1      109
siesta:     15.89260  16.04378  28.76164  2      110
siesta:     18.70830  15.53355  29.02620  2      111
siesta:      5.78256   4.19519  12.35881  1      112
siesta:      4.89439   2.60782  12.32102  2      113
siesta:      7.48332   3.74166  12.73676  2      114
siesta:     14.04067  22.35547  16.95085  1      115
siesta:     13.34147  20.74920  16.49732  2      116
siesta:     14.17295  23.24364  15.38238  2      117
siesta:      8.42818  16.00599  26.19161  1      118
siesta:      6.76522  15.32568  26.45618  2      119
siesta:      9.01400  15.15561  24.69873  2      120
siesta:     -0.20787  22.35547  23.26254  1      121
siesta:      1.51178  22.52554  22.77121  2      122
siesta:     -1.02045  21.63737  21.82635  2      123
siesta:      1.49288   8.88172   9.33525  1      124
siesta:      1.92752  10.54468   8.76833  2      125
siesta:      3.00467   7.91796   9.16518  2      126
siesta:      4.81880  22.56334   8.10693  1      127
siesta:      4.83770  20.78700   7.78567  2      128
siesta:      5.78256  23.26254   6.74632  2      129
siesta:     16.72408   3.28812  20.10669  1      130
siesta:     16.62960   5.08337  20.06890  2      131
siesta:     15.02333   2.72121  19.86103  2      132
siesta:     29.91438  14.09736  14.75877  1      133
siesta:     29.08290  12.54779  15.13671  2      134
siesta:     28.61046  15.34458  14.85325  2      135
siesta:      8.18252  27.43883  18.78389  1      136
siesta:      6.40617  27.60891  19.02955  2      137
siesta:      8.42818  25.71918  18.31145  2      138
siesta:     27.77899   6.23610  21.73186  1      139
siesta:     29.21518   5.57469  20.86258  2      140
siesta:     27.11758   4.83770  22.65783  2      141
siesta:     29.68761  13.09581   1.07714  1      142
siesta:     28.15693  12.39661   0.39684  2      143
siesta:     30.65137  11.65961   1.58737  2      144
siesta:     19.40750  24.11291  24.01843  1      145
siesta:     17.87682  24.58535  23.16805  2      146
siesta:     19.27521  22.33657  24.22630  2      147
siesta:     23.75387  12.45330   3.68497  1      148
siesta:     23.79166  13.81390   4.87550  2      149
siesta:     24.67983  11.13049   4.47865  2      150
siesta:     22.29878  21.18384   9.01400  1      151
siesta:     20.93817  20.82479  10.16673  2      152
siesta:     21.97752  22.88459   8.46598  2      153
siesta:      6.85971  10.67696  25.98374  1      154
siesta:      7.23765  10.31791  24.26409  2      155
siesta:      8.06913   9.71320  26.92861  2      156
siesta:     13.13360  18.44373  28.89392  1      157
siesta:     11.50844  18.34925  28.11914  2      158
siesta:     12.98242  19.76654  30.12225  2      159
siesta:     26.19161   2.75900  25.09557  1      160
siesta:     24.45307   3.23143  24.90660  2      161
siesta:     26.49397   1.62517  23.71607  2      162
siesta:      8.46598  22.33657   4.53534  1      163
siesta:      7.86126  20.80589   3.76056  2      164
siesta:      8.22031  23.60269   3.26923  2      165
siesta:     25.37903  10.71475  16.27055  1      166
siesta:     24.45307   9.67540  17.42328  2      167
siesta:     24.81211  10.18563  14.62649  2      168
siesta:     20.50354   0.94486  23.43261  1      169
siesta:     19.97441   1.02045  25.15226  2      170
siesta:     19.10514   1.58737  22.48775  2      171
siesta:     14.02177   7.88016  24.11291  1      172
siesta:     15.04223   8.50377  22.75231  2      173
siesta:     13.36037   6.31169  23.50820  2      174
siesta:     11.71631  17.83902  16.93195  1      175
siesta:     10.96042  17.36659  18.51932  2      176
siesta:     10.60137  17.15872  15.68473  2      177
siesta:     17.65005   4.08181   8.08803  1      178
siesta:     17.97130   5.32903   6.80302  2      179
siesta:     15.85481   4.08181   8.25811  2      180
siesta:      6.51956  17.83902   2.72121  1      181
siesta:      5.65028  16.28945   3.04246  2      182
siesta:      5.97154  18.33035   1.07714  2      183
siesta:     18.57602  20.69251  13.19029  1      184
siesta:     18.25476  19.50198  14.51310  2      185
siesta:     18.57602  22.29878  14.02177  2      186
siesta:      3.42041  26.90971   4.25189  1      187
siesta:      4.38417  28.30811   4.89439  2      188
siesta:      2.04091  26.73964   5.40462  2      189
siesta:     29.19628  28.76164  14.77766  1      190
siesta:     28.13803  27.34435  14.49421  2      191
siesta:     30.21673  28.30811  16.19496  2      192
siesta:     12.73676  26.24831  13.19029  1      193
siesta:     13.60603  27.83568  13.11470  2      194
siesta:     13.03912  25.49242  11.56513  2      195
siesta:     26.26720  24.86881  12.83125  1      196
siesta:     24.62314  24.47196  12.18874  2      197
siesta:     27.36325  23.71607  11.96197  2      198
siesta:     11.24387  13.56824  29.70651  1      199
siesta:     12.50999  14.85325  29.91438  2      200
siesta:     10.05335  14.30523  28.55377  2      201
siesta:     22.58224  24.33968  28.49708  1      202
siesta:     21.37281  24.35858  27.13648  2      203
siesta:     24.15071  24.77432  27.70340  2      204
siesta:     11.82969   0.90707  20.59802  1      205
siesta:     11.30057   0.96376  22.33657  2      206
siesta:     10.73365  -0.32125  19.82323  2      207
siesta:      2.66451   4.34637   3.57158  1      208
siesta:      2.34326   6.10382   3.72276  2      209
siesta:      2.38106   3.96843   1.83304  2      210
siesta:     28.96951  18.34925  27.59001  1      211
siesta:     28.04355  18.51932  26.04044  2      212
siesta:     27.76009  18.67050  28.87503  2      213
siesta:      7.76678  25.64359  11.73520  1      214
siesta:      9.16518  26.32390  12.64227  2      215
siesta:      8.16362  23.88615  11.54623  2      216
siesta:     21.33502  26.60735  10.48798  1      217
siesta:     21.37281  26.66405  12.28322  2      218
siesta:     22.22319  28.08134   9.95886  2      219
siesta:      4.83770  10.43129  17.66895  1      220
siesta:      4.30858  12.15094  17.70674  2      221
siesta:      3.45820   9.54312  16.89416  2      222
siesta:      6.84081   7.82347   8.69274  1      223
siesta:      6.55735   6.33059   9.65650  2      224
siesta:      7.40773   7.21876   7.08648  2      225
siesta:     17.04534  10.56357  15.36348  1      226
siesta:     18.46263   9.69430  14.64538  2      227
siesta:     15.62804   9.99666  14.39972  2      228
siesta:     26.43728  28.11914  21.73186  1      229
siesta:     26.39948  27.74119  23.48931  2      230
siesta:     24.92550  27.36325  21.07045  2      231
siesta:     20.40905   1.05825  28.81833  1      232
siesta:     19.19963   1.53068  30.08445  2      233
siesta:     20.54133  -0.73699  28.96951  2      234
siesta:      9.78879  14.73987   6.16051  1      235
siesta:      9.46753  16.02488   4.93219  2      236
siesta:     11.56513  14.89105   6.50066  2      237
siesta:     24.49086  19.29411   1.28501  1      238
siesta:     23.92394  18.42484   2.77790  2      239
siesta:     24.58535  21.03266   1.79524  2      240
siesta:     24.37748  16.51621   7.16206  1      241
siesta:     26.07823  16.74298   6.55735  2      242
siesta:     23.71607  18.19807   7.31324  2      243
siesta:     15.15561  25.53021  21.63737  1      244
siesta:     14.75877  27.28766  21.35391  2      245
siesta:     15.21230  24.81211  19.97441  2      246
siesta:      3.26923  14.89105  26.55066  1      247
siesta:      2.68341  13.19029  26.58846  2      248
siesta:      2.11649  15.79812  27.57112  2      249
siesta:      0.86927   7.99354  15.09892  1      250
siesta:      1.20943   8.73054  13.47375  2      251
siesta:     -0.83148   7.44552  15.00443  2      252
siesta:      9.03289   6.42507  28.25142  1      253
siesta:      8.29590   5.99043  29.83879  2      254
siesta:     10.80924   6.21720  28.49708  2      255
siesta:     29.17738  11.18718  24.15071  1      256
siesta:     28.47818   9.82658  23.18695  2      257
siesta:     27.98686  11.47064  25.47352  2      258
siesta:     10.88483  26.15382   7.69119  1      259
siesta:     10.60137  24.39637   7.40773  2      260
siesta:      9.88327  26.53177   9.16518  2      261
siesta:     19.74765   9.88327  25.88926  1      262
siesta:     19.06734  11.31946  25.01998  2      263
siesta:     21.03266  10.56357  26.94751  2      264
siesta:      4.00622  20.01221  28.44039  1      265
siesta:      4.96998  18.99176  27.28766  2      266
siesta:      2.28657  19.70985  27.98686  2      267
siesta:     18.40594  24.47196   5.36682  1      268
siesta:     20.08780  23.82946   5.21565  2      269
siesta:     18.10358  25.32234   3.77945  2      270
siesta:     26.62625  18.10358  14.28634  1      271
siesta:     27.81678  19.29411  13.60603  2      272
siesta:     25.62470  17.61225  12.86904  2      273
siesta:      5.17785  28.87503  24.90660  1      274
siesta:      3.93063  28.28921  23.73497  2      275
siesta:      4.21409  29.61202  26.24831  2      276
siesta:      2.94797  20.65471  17.06423  1      277
siesta:      3.91173  21.33502  18.42484  2      278
siesta:      3.55269  18.95396  16.87526  2      279
siesta:      0.88817  21.37281  12.16984  1      280
siesta:      1.90862  22.29878  10.99821  2      281
siesta:      1.70075  21.61848  13.75721  2      282
siesta:      3.72276  17.61225  10.11004  1      283
siesta:      5.17785  17.36659  11.16829  2      284
siesta:      2.41885  18.14138  11.22498  2      285
siesta:      9.42974   2.58893  24.71763  1      286
siesta:      8.08803   1.37950  24.75542  2      287
siesta:      8.88172   3.89284  25.85146  2      288
siesta:      8.86282  20.69251  11.11159  1      289
siesta:      7.69119  20.69251   9.75099  2      290
siesta:      8.65495  19.04845  11.86748  2      291
siesta:     12.32102   8.03134   5.51800  1      292
siesta:     13.51155   8.27700   4.17630  2      293
siesta:     10.84703   8.91951   4.95108  2      294
siesta:      9.01400  20.67361  22.14760  1      295
siesta:      8.65495  21.80745  20.78700  2      296
siesta:      9.16518  19.04845  21.35391  2      297
siesta:     16.93195   0.52912  12.71786  1      298
siesta:     16.70519   2.02201  11.71631  2      299
siesta:     18.00910  -0.52912  11.71631  2      300
siesta:      9.27856   9.59981  20.93817  1      301
siesta:      7.55891   9.84548  20.40905  2      302
siesta:      9.76989   8.05024  20.12559  2      303
siesta:      3.15584   9.58092   3.38261  1      304
siesta:      2.66451   9.90217   5.10226  2      305
siesta:      4.85660  10.20453   3.26923  2      306
siesta:     13.85170  21.58068   4.04402  1      307
siesta:     15.25010  22.33657   4.87550  2      308
siesta:     12.39661  22.39326   4.76211  2      309
siesta:     26.02154  17.00754  21.80745  1      310
siesta:     27.62781  16.21386  22.09091  2      311
siesta:     25.41683  16.27055  20.27677  2      312
siesta:     26.58846  21.86414  18.25476  1      313
siesta:     26.70184  20.29567  17.36659  2      314
siesta:     26.55066  23.11136  16.95085  2      315
siesta:      2.21098  28.74275  20.10669  1      316
siesta:      0.43464  28.55377  20.44684  2      317
siesta:      2.49444  30.51909  20.23897  2      318
siesta:     11.73520  23.28144  25.60580  1      319
siesta:     10.75255  22.07201  24.67983  2      320
siesta:     12.88794  23.98063  24.37748  2      321
siesta:     25.22785  11.58403  28.17583  1      322
siesta:     24.62314  13.26588  28.00575  2      323
siesta:     24.45307  10.96042  29.66871  2      324
siesta:     27.00420   3.77945  16.32724  1      325
siesta:     27.98686   2.72121  15.25010  2      326
siesta:     25.32234   3.70386  15.64694  2      327
siesta:     14.30523   6.25500  28.83723  1      328
siesta:     15.19340   7.52111  29.76320  2      329
siesta:     14.15405   6.93530  27.17427  2      330
siesta:      4.93219  24.26409  21.05156  1      331
siesta:      3.85504  25.70029  20.76810  2      332
siesta:      5.95264  24.73652  22.44996  2      333
siesta:     17.72564  18.08469   4.06291  1      334
siesta:     17.53667  16.98864   2.62672  2      335
siesta:     16.45952  19.35080   3.83615  2      336
siesta:     18.06579  14.68318  12.85014  1      337
siesta:     17.47997  13.43596  14.02177  2      338
siesta:     17.02644  14.45641  11.37616  2      339
siesta:      5.61249   1.24722   6.87861  1      340
siesta:      4.89439   2.81569   6.31169  2      341
siesta:      4.72432   0.85038   8.39039  2      342
siesta:      4.34637  15.85481  16.96975  1      343
siesta:      3.70386  15.83591  18.67050  2      344
siesta:      3.04246  15.13671  15.96819  2      345
siesta:     12.45330   8.97620  12.33992  1      346
siesta:     10.84703   9.73209  12.66117  2      347
siesta:     12.69896   9.18407  10.56357  2      348
siesta:     22.37437   9.14628  19.86103  1      349
siesta:     22.43106  10.37460  21.20274  2      350
siesta:     23.43261   7.80457  20.42795  2      351
siesta:     14.62649  15.96819   8.40928  1      352
siesta:     13.09581  16.79967   8.90061  2      353
siesta:     15.38238  17.08313   7.21876  2      354
siesta:      0.01890  27.23096   8.12583  1      355
siesta:      0.94486  28.17583   9.35415  2      356
siesta:     -0.96376  28.47818   7.23765  2      357
siesta:      8.82502  22.63893  17.02644  1      358
siesta:      8.48487  22.97908  15.28789  2      359
siesta:     10.60137  22.86570  17.19651  2      360
siesta:     15.81701  10.62027   8.01244  1      361
siesta:     14.58869   9.95886   6.85971  2      362
siesta:     15.81701  12.39661   7.72898  2      363
siesta:     11.50844  29.47974   4.15740  1      364
siesta:     10.97931  28.78054   2.57003  2      365
siesta:     11.01711  28.25142   5.38572  2      366
siesta:     19.38860  25.56800  15.51466  1      367
siesta:     20.18228  25.39793  17.12093  2      368
siesta:     19.12404  27.34435  15.32568  2      369
siesta:     23.26254  15.04223  11.75410  1      370
siesta:     21.56178  15.17451  12.32102  2      371
siesta:     23.16805  15.30679   9.95886  2      372
siesta:     19.10514   7.84237  10.99821  1      373
siesta:     18.67050   6.40617   9.97776  2      374
siesta:     18.16028   9.20297  10.28011  2      375
siesta:     26.62625   4.04402   1.28501  1      376
siesta:     24.92550   4.08181   0.66140  2      377
siesta:     27.60891   3.32592  -0.05669  2      378
siesta:      3.32592  29.34746  11.67851  1      379
siesta:      4.64873  28.19473  12.15094  2      380
siesta:      1.88973  28.81833  12.64227  2      381
siesta:      8.10693  16.10047  13.19029  1      382
siesta:      6.97309  16.51621  14.53200  2      383
siesta:      8.06913  14.28634  13.13360  2      384

siesta: System type = bulk      

initatomlists: Number of atoms, orbitals, and projectors:    384  2944  4352

siesta: ******************** Simulation parameters ****************************
siesta:
siesta: The following are some of the parameters of the simulation.
siesta: A complete list of the parameters used, including default values,
siesta: can be found in file out.fdf
siesta:
redata: Non-Collinear-spin run           =     F
redata: SpinPolarized (Up/Down) run      =     F
redata: Number of spin components        =     1
redata: Long output                      =     F
redata: Number of Atomic Species         =        2
redata: Charge density info will appear in .RHO file
redata: Write Mulliken Pop.              =     NO
redata: Mesh Cutoff                      =   150.0000  Ry
redata: Net charge of the system         =     0.0000 |e|
redata: Min. number of SCF Iter          =        0
redata: Max. number of SCF Iter          =       50
redata: Mix DM or H after convergence    =     F
redata: Recompute H after scf cycle      =     F
redata: Performing Pulay mixing using    =     3 iterations
redata: Mix DM in first SCF step ?       =     F
redata: Write Pulay info on disk?        =     F
redata: Discard 1st Pulay DM after  kick =     F
redata: New DM Mixing Weight             =     0.3000
redata: New DM Occupancy tolerance       = 0.000000000001
redata: No kicks to SCF
redata: DM Mixing Weight for Kicks       =     0.5000
redata: DM Tolerance for SCF             =     0.000100
redata: Require (free) Energy convergence in SCF =     F
redata: DM (free)Energy tolerance for SCF =     0.000010 eV
redata: Require Harris convergence for SCF =     F
redata: DM Harris energy tolerance for SCF =     0.000010 eV
redata: Using Saved Data (generic)   =     F
redata: Use continuation files for DM    =     F
redata: Neglect nonoverlap interactions  =     F
redata: Method of Calculation            =     QETSc
redata: Fix the spin of the system       =     F
redata: Dynamics option                  =     Single-point calculation
redata: ***********************************************************************
Total number of electrons:  1024.000000
Total ionic charge:  1024.000000

* ProcessorY, Blocksize:    4 184


* Orbital distribution balance (max,min):   184   184

 Kpoints in:  1 . Kpoints trimmed:  1

siesta: k-grid: Number of k-points =     1
siesta: k-grid: Cutoff (effective) =     7.823 Ang
siesta: k-grid: Supercell and displacements
siesta: k-grid:    1   0   0      0.000
siesta: k-grid:    0   1   0      0.000
siesta: k-grid:    0   0   1      0.000

                     ====================================
                        Single-point calculation
                     ====================================

outcell: Unit cell vectors (Ang):
       15.646046    0.000000    0.000000
        0.000000   15.646046    0.000000
        0.000000    0.000000   15.646046

outcell: Cell vector modules (Ang)   :   15.646046   15.646046   15.646046
outcell: Cell angles (23,13,12) (deg):     90.0000     90.0000     90.0000
outcell: Cell volume (Ang**3)        :   3830.1327
New_DM. Step:     1
Initializing Density Matrix...
New grid distribution:   1
           1       1:   60    1:   15    1:   15
           2       1:   60    1:   15   16:   30
           3       1:   60    1:   15   31:   45
           4       1:   60    1:   15   46:   60
           5       1:   60   16:   30    1:   15
           6       1:   60   16:   30   16:   30
           7       1:   60   16:   30   31:   45
           8       1:   60   16:   30   46:   60
           9       1:   60   31:   45    1:   15
          10       1:   60   31:   45   16:   30
          11       1:   60   31:   45   31:   45
          12       1:   60   31:   45   46:   60
          13       1:   60   46:   60    1:   15
          14       1:   60   46:   60   16:   30
          15       1:   60   46:   60   31:   45
          16       1:   60   46:   60   46:   60

InitMesh: MESH =   120 x   120 x   120 =     1728000
InitMesh: (bp) =    60 x    60 x    60 =      216000
InitMesh: Mesh cutoff (required, used) =   150.000   162.575 Ry
ExtMesh (bp) on 0 =   112 x    67 x    67 =      502768
New grid distribution:   2
           1       1:   27   31:   60   44:   60
           2       1:   29    1:   29   14:   28
           3       1:   30    1:   30   29:   46
           4      30:   60    1:   29    1:   14
           5       1:   30    1:   30   47:   60
           6       1:   28   30:   60   16:   28
           7      31:   60    1:   30   29:   44
           8      31:   60    1:   30   45:   60
           9      29:   60   30:   60    1:   14
          10      30:   60    1:   29   15:   28
          11      28:   60   31:   60   29:   44
          12       1:   29    1:   29    1:   13
          13       1:   28   30:   60    1:   15
          14      29:   60   30:   60   15:   28
          15       1:   27   31:   60   29:   43
          16      28:   60   31:   60   45:   60
New grid distribution:   3
           1       1:   30   31:   60   31:   45
           2      31:   60    1:   30    1:   15
           3      31:   60    1:   30   31:   45
           4      31:   60   31:   60    1:   15
           5       1:   30   31:   60   46:   60
           6      31:   60    1:   30   16:   30
           7      31:   60   31:   60   16:   30
           8      31:   60    1:   30   46:   60
           9       1:   30    1:   30   31:   45
          10       1:   30    1:   30    1:   15
          11      31:   60   31:   60   31:   45
          12       1:   30   31:   60    1:   15
          13       1:   30    1:   30   46:   60
          14       1:   30    1:   30   16:   30
          15       1:   30   31:   60   16:   30
          16      31:   60   31:   60   46:   60
Setting up quadratic distribution...
ExtMesh (bp) on 0 =    79 x    82 x    69 =      446982
PhiOnMesh: Number of (b)points on node 0 =                13770
PhiOnMesh: nlist on node 0 =               502060
QETSC: Last update           = Dec 15, 2016
QETSC: Number of ranks       =          16
QETSC: Number of slices      =          16
QETSC: Number of ranks/slice =           1
QETSC: Number of evals/slice =  32.00
QETSC: Number of req. evals  =         512
QETSC: Number of rows (all)  =        2944
QETSC: Number of rows (max)  =         184
QETSC: Number of rows (min)  =         184
QETSC: Density option        =           0
QETSC: Bin type given        =           7
QETSC: Inertia type          =           1
QETSC: Infinity type         =           2
QETSC: Write option          =           1
QETSC: Bin buffer given      =   0.10
QETSC: Diff thresh           =   0.02
QETSC: Number of nonzeros    =      808032
QETSC: Nonzero % (all)       =   9.32
QETSC: Nonzero % (max)       =   9.68
QETSC: Nonzero % (min)       =   9.00
 QETSC: Shifts, inertias         =
      -INF     0
    -2.300     0
    -2.147   128
    -1.993   128
    -1.840   128
    -1.687   128
    -1.533   128
    -1.380   128
    -1.227   256
    -1.073   380
    -0.920   512
    -0.767   512
    -0.613   512
    -0.460   512
    -0.307   512
    -0.153   512
     0.000   512
 QETSc: Custers,iter,crange,npcmax,trial 1 0.440033148000000054E-01 68 9
-2.2568750000000000E+00
-2.2125520833333332E+00
-2.1682291666666664E+00
-2.1478645833333330E+00
-1.3368749999999998E+00
-1.2925520833333333E+00
-1.2482291666666665E+00
-1.2031720430107526E+00
-1.1586559139784944E+00
-1.1141397849462364E+00
-1.0698484848484848E+00
-1.0257070707070706E+00
-9.8156565656565653E-01
-9.3742424242424238E-01
-9.2232323232323221E-01
 QETSC: Bins             =
                   -INF
-2.2999999999999998E+00
-2.2480104166666668E+00
-2.2036875000000000E+00
-2.1641562499999996E+00
-1.9856666666666662E+00
-1.3280104166666664E+00
-1.2836874999999999E+00
-1.2392177419354837E+00
-1.1942688172043010E+00
-1.1497526881720428E+00
-1.1052815249266861E+00
-1.0610202020202020E+00
-1.0168787878787877E+00
-9.7273737373737368E-01
-9.3440404040404035E-01
-9.1999999999999993E-01
QETSC: Started iter            1
QETSC: Bin type used         =           7
QETSC: Buffer used           =   0.0000000000000000E+00
QETSC: EPS interval          =      -INF,    -0.920
QETSC: Inertia type          =           1
SLEPc: EPSSolve time = 0 3.891e-06
SLEPc: EPSSolve time = 12 3.502e-06
SLEPc: EPSSolve time = 15 2.297e-06
SLEPc: EPSSolve time = 3 2.052e-06
SLEPc: EPSSolve time = 8 3.898e-06
SLEPc: EPSSolve time = 4 1.727e-06
SLEPc: EPSSolve time = 5 8.942e+00
SLEPc: EPSSolve time = 9 1.051e+01
SLEPc: EPSSolve time = 7 1.074e+01
SLEPc: EPSSolve time = 2 1.162e+01
SLEPc: EPSSolve time = 11 1.290e+01
SLEPc: EPSSolve time = 14 1.533e+01
SLEPc: EPSSolve time = 10 1.873e+01
SLEPc: EPSSolve time = 13 2.636e+01
SLEPc: EPSSolve time = 6 2.641e+01
SLEPc: EPSSolve time = 1 2.707e+01
 QETSC: Eigenvalues         =
-2.2942690628581710E+00
-2.2915884994216822E+00
-2.2896858110285838E+00
-2.2887702009403341E+00
-2.2871893855683298E+00
-2.2864442651962431E+00
-2.2861183249658001E+00
-2.2846526193598460E+00
-2.2842757447009485E+00
-2.2838849403153731E+00
-2.2832597376925077E+00
-2.2826202848733508E+00
-2.2817977344205045E+00
-2.2807723115576115E+00
-2.2799192958388494E+00
-2.2796736362043171E+00
-2.2794625646534037E+00
-2.2790387687023164E+00
-2.2787413898837823E+00
-2.2783042952985602E+00
-2.2777764625635633E+00
-2.2770836314175398E+00
-2.2762865963685051E+00
-2.2762324003593366E+00
-2.2753415859596355E+00
-2.2749900340988023E+00
-2.2743175385671592E+00
-2.2738690925699636E+00
-2.2736510144693383E+00
-2.2731601396778589E+00
-2.2722736355734963E+00
-2.2718626563783748E+00
-2.2716372485707570E+00
-2.2710654791677336E+00
-2.2707219991903589E+00
-2.2705307103435444E+00
-2.2702128741747480E+00
-2.2697960991554029E+00
-2.2694817321788641E+00
-2.2692816488944225E+00
-2.2688425602110236E+00
-2.2680687756515892E+00
-2.2679429933377495E+00
-2.2676212969874929E+00
-2.2672988907711824E+00
-2.2669586985697205E+00
-2.2668328576681636E+00
-2.2664664309728040E+00
-2.2656407982522060E+00
-2.2653840999840256E+00
-2.2649376208451124E+00
-2.2647348708304711E+00
-2.2644244984389963E+00
-2.2635433553230793E+00
-2.2628490004930790E+00
-2.2624087521833292E+00
-2.2623506366917070E+00
-2.2617181215804520E+00
-2.2612513005171850E+00
-2.2609308311998269E+00
-2.2604805977944307E+00
-2.2600941457329045E+00
-2.2597923696225992E+00
-2.2594101258063550E+00
-2.2591144678915827E+00
-2.2588591469354511E+00
-2.2583724585643226E+00
-2.2580516869622338E+00
-2.2580424795069920E+00
-2.2573448842310642E+00
-2.2569543881446199E+00
-2.2564376889813791E+00
-2.2559933633951230E+00
-2.2558656814599196E+00
-2.2553007672815921E+00
-2.2550969554612883E+00
-2.2547972045674807E+00
-2.2546543720997518E+00
-2.2542411457914331E+00
-2.2539680889007716E+00
-2.2535887348866317E+00
-2.2534487633497702E+00
-2.2526824243218315E+00
-2.2524086470276323E+00
-2.2520019439714849E+00
-2.2513253251960501E+00
-2.2508525752879858E+00
-2.2506949894694896E+00
-2.2503018746960657E+00
-2.2497046828205418E+00
-2.2492648373470443E+00
-2.2491269551953725E+00
-2.2488743932046766E+00
-2.2483663850273090E+00
-2.2480622530948624E+00
-2.2477776116546497E+00
-2.2474912365676261E+00
-2.2472005157386841E+00
-2.2464806025749593E+00
-2.2458533768716458E+00
-2.2455471228788264E+00
-2.2453992139843972E+00
-2.2450032156242812E+00
-2.2448901664043515E+00
-2.2446090978846907E+00
-2.2442362860927112E+00
-2.2438517150039696E+00
-2.2433067158884032E+00
-2.2432047274368605E+00
-2.2428937088301861E+00
-2.2418899504623222E+00
-2.2414957006598653E+00
-2.2413577556944180E+00
-2.2408570790729434E+00
-2.2400244344608149E+00
-2.2399512944146287E+00
-2.2396231875987178E+00
-2.2391501246594032E+00
-2.2389536954495526E+00
-2.2388145908805175E+00
-2.2381296113895481E+00
-2.2375063830523838E+00
-2.2367386846868400E+00
-2.2364835818605791E+00
-2.2362797727998416E+00
-2.2356807818379072E+00
-2.2352029993864839E+00
-2.2340754124407600E+00
-1.3450505335226510E+00
-1.3381209246633072E+00
-1.3370903547836877E+00
-1.3360518880024728E+00
-1.3350334222278901E+00
-1.3338060640958200E+00
-1.3328997541346197E+00
-1.3319546925452801E+00
-1.3315511895013428E+00
-1.3310438176407771E+00
-1.3304846795488949E+00
-1.3294713142910448E+00
-1.3282467512102434E+00
-1.3266832116167815E+00
-1.3260468933902034E+00
-1.3256506200546991E+00
-1.3251920441296332E+00
-1.3247084077709119E+00
-1.3237405619322395E+00
-1.3232518508933793E+00
-1.3228810768706516E+00
-1.3220476689082694E+00
-1.3212147554786513E+00
-1.3207609129391855E+00
-1.3203078833749220E+00
-1.3199379835451330E+00
-1.3188596511595807E+00
-1.3187028376626766E+00
-1.3182790808711493E+00
-1.3180429069324815E+00
-1.3175154088693708E+00
-1.3173043428204725E+00
-1.3166322419837317E+00
-1.3164656015844896E+00
-1.3158598348646495E+00
-1.3152601846523917E+00
-1.3150780778937627E+00
-1.3144554512492759E+00
-1.3139919958791291E+00
-1.3139353664075755E+00
-1.3127493790714106E+00
-1.3121169680598004E+00
-1.3116942979710724E+00
-1.3111849903568613E+00
-1.3110280061346802E+00
-1.3106940727942402E+00
-1.3100514232746387E+00
-1.3096411272105386E+00
-1.3094479442730815E+00
-1.3088886777847188E+00
-1.3083800370368195E+00
-1.3075938614968283E+00
-1.3070920151012675E+00
-1.3066818437381864E+00
-1.3063854684421046E+00
-1.3060752949041867E+00
-1.3057625173019929E+00
-1.3053728047256927E+00
-1.3049288459337784E+00
-1.3046561464803570E+00
-1.3042130565403465E+00
-1.3037407642877756E+00
-1.3035691115942591E+00
-1.3031892932182827E+00
-1.3025750321560807E+00
-1.3022453876933904E+00
-1.3018798362270925E+00
-1.3016915578298676E+00
-1.3013637264944846E+00
-1.3006709358341420E+00
-1.3003880762174103E+00
-1.3001037291749162E+00
-1.2997070819472238E+00
-1.2993927770468354E+00
-1.2992060368967939E+00
-1.2982829311828192E+00
-1.2979832791193524E+00
-1.2977602033991433E+00
-1.2969398551548363E+00
-1.2964137894023238E+00
-1.2962394265286150E+00
-1.2957595940511712E+00
-1.2952468633043572E+00
-1.2949768662438306E+00
-1.2946349511009565E+00
-1.2940441335543207E+00
-1.2936347013269218E+00
-1.2929992470000811E+00
-1.2920852434482291E+00
-1.2918548634989646E+00
-1.2913881751296994E+00
-1.2909994718850593E+00
-1.2908774403005836E+00
-1.2902682431014965E+00
-1.2891482198809865E+00
-1.2888647408030507E+00
-1.2887310304517712E+00
-1.2881288324929039E+00
-1.2880577514019893E+00
-1.2875425990727363E+00
-1.2873119438777172E+00
-1.2869349338843159E+00
-1.2867902454403497E+00
-1.2865547820082208E+00
-1.2857729645199509E+00
-1.2856188472840044E+00
-1.2851178957358191E+00
-1.2848348190046723E+00
-1.2839115757136328E+00
-1.2835454684698882E+00
-1.2833280494735908E+00
-1.2826621438971677E+00
-1.2824147972135913E+00
-1.2816399411388175E+00
-1.2803896803089840E+00
-1.2800921776228413E+00
-1.2795124726291458E+00
-1.2787647700141787E+00
-1.2782907389652911E+00
-1.2774153946482703E+00
-1.2767004799593564E+00
-1.2754305415791951E+00
-1.2748468938931734E+00
-1.2734903064618945E+00
-1.2733844790737330E+00
-1.2722721316023953E+00
-1.2712019575783944E+00
-1.2644938901098532E+00
-1.1784272869549284E+00
-1.1776383245095192E+00
-1.1740926806653658E+00
-1.1698048211617524E+00
-1.1672458934899861E+00
-1.1653847234684247E+00
-1.1641847839711421E+00
-1.1633340971434931E+00
-1.1629666760519524E+00
-1.1613445801332525E+00
-1.1600331059754019E+00
-1.1580179666722314E+00
-1.1574016339007185E+00
-1.1563388662491707E+00
-1.1555693205293283E+00
-1.1552852737849870E+00
-1.1537522761729175E+00
-1.1534764755035305E+00
-1.1528598222411366E+00
-1.1516568741354958E+00
-1.1512703030790137E+00
-1.1494768408725826E+00
-1.1491088700388852E+00
-1.1482881212870828E+00
-1.1480247057249773E+00
-1.1468993465594761E+00
-1.1456484785112488E+00
-1.1454536984774095E+00
-1.1447770575952743E+00
-1.1438270730910085E+00
-1.1425061359296638E+00
-1.1417976047214260E+00
-1.1415431409988650E+00
-1.1407133896082515E+00
-1.1398027665834747E+00
-1.1387948918303705E+00
-1.1384787682955169E+00
-1.1379583010764980E+00
-1.1371129387579804E+00
-1.1361588626618340E+00
-1.1357314647054009E+00
-1.1348572099419307E+00
-1.1345399167232717E+00
-1.1332125113982325E+00
-1.1327929886648351E+00
-1.1318497997709582E+00
-1.1302155198534629E+00
-1.1301689638552683E+00
-1.1289620692808184E+00
-1.1286611291805051E+00
-1.1274305231654205E+00
-1.1265893454450773E+00
-1.1260793904912767E+00
-1.1257179424588819E+00
-1.1250174028749558E+00
-1.1244069201155495E+00
-1.1232372158726671E+00
-1.1218902469425760E+00
-1.1214113806925590E+00
-1.1212947308553576E+00
-1.1202118833597488E+00
-1.1200313229924079E+00
-1.1196359748230973E+00
-1.1189973025562210E+00
-1.1181660783302341E+00
-1.1176159049677932E+00
-1.1170048611135399E+00
-1.1161809155452358E+00
-1.1146373907436209E+00
-1.1144111515026569E+00
-1.1140277445459279E+00
-1.1132452651050491E+00
-1.1121003170969128E+00
-1.1111048544957889E+00
-1.1106267222044015E+00
-1.1098070607260171E+00
-1.1097158141993562E+00
-1.1091794626350739E+00
-1.1078059701545240E+00
-1.1074195999386522E+00
-1.1072329891258386E+00
-1.1062618352113118E+00
-1.1055505725683570E+00
-1.1047230116440323E+00
-1.1034231988937147E+00
-1.1025304616352778E+00
-1.1020260424171635E+00
-1.1015976587626448E+00
-1.1007940866876311E+00
-1.0995097035908470E+00
-1.0991835859242467E+00
-1.0985879425466576E+00
-1.0981983685435901E+00
-1.0977810836406328E+00
-1.0974087430165793E+00
-1.0962453812202768E+00
-1.0957468835687296E+00
-1.0952458655075044E+00
-1.0943235071564223E+00
-1.0941059170431355E+00
-1.0935136387894708E+00
-1.0925585575532379E+00
-1.0917752813613868E+00
-1.0912360709329882E+00
-1.0906489878096728E+00
-1.0894866171964723E+00
-1.0885483069395618E+00
-1.0879472073113188E+00
-1.0876067328216805E+00
-1.0861417860089604E+00
-1.0857405573882235E+00
-1.0847778790059621E+00
-1.0841163720768749E+00
-1.0836849793107473E+00
-1.0827063994088837E+00
-1.0822887166209822E+00
-1.0812574180679007E+00
-1.0805119165141184E+00
-1.0787735010717701E+00
-1.0785606974411057E+00
-1.0778306568645053E+00
-1.0756641068126491E+00
-1.0753383127048455E+00
-1.0743863805314775E+00
-1.0723485759763824E+00
-1.0716097469671619E+00
-1.0702154541833007E+00
-1.0674710429940042E+00
-1.0014987829967985E+00
-9.9698070433329822E-01
-9.9593930943638465E-01
-9.9563810528446550E-01
-9.9549740503740924E-01
-9.9492121220411001E-01
-9.9456594621642769E-01
-9.9384977538225061E-01
-9.9371612840044843E-01
-9.9307113621170651E-01
-9.9274396623830441E-01
-9.9188872118006144E-01
-9.9148102145569272E-01
-9.9131078395582373E-01
-9.9119701700186158E-01
-9.9084986275857789E-01
-9.9063126996612050E-01
-9.9040824396313565E-01
-9.8954799750229205E-01
-9.8938495407099125E-01
-9.8918529576447645E-01
-9.8889927176402004E-01
-9.8869136215580156E-01
-9.8851111983038664E-01
-9.8814240440893131E-01
-9.8748111052831966E-01
-9.8736243647419564E-01
-9.8690438945059700E-01
-9.8679187518692968E-01
-9.8661093528033061E-01
-9.8640806834612349E-01
-9.8610786923796578E-01
-9.8581315999546792E-01
-9.8568632169440096E-01
-9.8505007715771475E-01
-9.8484523321122797E-01
-9.8473350540961091E-01
-9.8456098065390463E-01
-9.8413094914849519E-01
-9.8405769207820049E-01
-9.8378674586163539E-01
-9.8329672596425421E-01
-9.8309463160978039E-01
-9.8287039335728343E-01
-9.8251811441446490E-01
-9.8221653202282322E-01
-9.8192534392689024E-01
-9.8166375999686073E-01
-9.8142985968730934E-01
-9.8125829758512517E-01
-9.8086870579056418E-01
-9.8058224349113343E-01
-9.8021545657867548E-01
-9.8009136182469991E-01
-9.7975448089552120E-01
-9.7964447878273408E-01
-9.7944546442772840E-01
-9.7937015026840180E-01
-9.7923459432821380E-01
-9.7900834974639006E-01
-9.7881916776915268E-01
-9.7878957598054150E-01
-9.7841218981588607E-01
-9.7831233129587147E-01
-9.7775248268453774E-01
-9.7770841346243387E-01
-9.7749529767778043E-01
-9.7729131641567002E-01
-9.7689177650888359E-01
-9.7675780595031569E-01
-9.7642571515172838E-01
-9.7618113222167791E-01
-9.7601429259067218E-01
-9.7583413392285034E-01
-9.7571706854694107E-01
-9.7526173613521061E-01
-9.7513360069748123E-01
-9.7468181928853537E-01
-9.7452268099837436E-01
-9.7434078460634443E-01
-9.7402640129373419E-01
-9.7377708075107949E-01
-9.7364979904066573E-01
-9.7340386033277293E-01
-9.7309993977074760E-01
-9.7281290373751761E-01
-9.7256170635248340E-01
-9.7230522163540967E-01
-9.7188994630040537E-01
-9.7159026550931982E-01
-9.7142060392885110E-01
-9.7101359907716356E-01
-9.7069734859338608E-01
-9.7063523487938463E-01
-9.7049632109136985E-01
-9.7016040254762159E-01
-9.6995239438625180E-01
-9.6964158235185938E-01
-9.6940602660933428E-01
-9.6887427227920919E-01
-9.6858910093293837E-01
-9.6854869727488579E-01
-9.6811394897074032E-01
-9.6771494972083083E-01
-9.6750531361939995E-01
-9.6732721792637044E-01
-9.6702157790961207E-01
-9.6692503860433165E-01
-9.6633351329084971E-01
-9.6619091981997385E-01
-9.6603080955246723E-01
-9.6567596547507406E-01
-9.6556349041604594E-01
-9.6554843064130880E-01
-9.6477412409792618E-01
-9.6399245508776310E-01
-9.6361632463584523E-01
-9.6334023884483844E-01
-9.6239426431148145E-01
-9.6202739810275040E-01
-9.6171025066074844E-01
-9.6160819316098045E-01
-9.6096517027150219E-01
-9.6071538112038735E-01
-9.6040063508262752E-01
-9.6006291333214688E-01
-9.5888179154989861E-01
-9.5630094115911901E-01
QETSC: Iter time (min)       =     1  39.25
QETSC: Iter time (max)       =     1  39.25
QETSC: Iter time (avg)       =     1  39.25
QETSC: Num. of conv. evals   =     1         512
QETSC: Eigenvalue (1)        =     1  -2.2942690628581710E+00
QETSC: Eigenvalue (nocc)     =     1  -9.5630094115911901E-01
QETSC: Max differrence       =     1   2.2942690628581710E+00
QETSC: Safe iteration        =     1      F
QETSC: Finished iter         =           1
 *****************************************************************
QETSC: SCF iter time=  39.390

siesta: Program's energy decomposition (eV):
siesta: Ebs     =    -19717.145141
siesta: Eions   =    104429.373288
siesta: Ena     =     25111.247127
siesta: Ekin    =     39771.655038
siesta: Enl     =     -5671.889728
siesta: DEna    =         0.000020
siesta: DUscf   =         0.000000
siesta: DUext   =         0.000000
siesta: Exc     =    -14272.759880
siesta: eta*DQ  =         0.000000
siesta: Emadel  =         0.000000
siesta: Emeta   =         0.000000
siesta: Emolmec =         0.000000
siesta: Ekinion =         0.000000
siesta: Eharris =    -60791.143089
siesta: Etot    =    -59491.120711
siesta: FreeEng =    -59491.120711
timer: Routine,Calls,Time,% =    IterSCF     1      46.150  60.35
 QETSC: Shifts, inertias         =
      -INF     0
    -2.300     0
    -2.147     0
    -1.993     0
    -1.840     0
    -1.687     0
    -1.533    32
    -1.380   122
    -1.227   128
    -1.073   128
    -0.920   128
    -0.767   167
    -0.613   254
    -0.460   268
    -0.307   341
    -0.153   440
     0.000   512
 QETSc: Custers,iter,crange,npcmax,trial 2 0.910799999999999943E-01 68 4
-1.5956249999999998E+00
-1.5009629629629628E+00
-1.4089629629629628E+00
-1.3288888888888888E+00
-1.2522222222222221E+00
-8.2957264957264953E-01
-7.3494252873563215E-01
-6.4329501915708809E-01
-5.5857142857142850E-01
-4.5789954337899541E-01
-3.6547945205479448E-01
-2.7259259259259255E-01
-1.8121212121212121E-01
-8.9444444444444438E-02
-4.2592592592592690E-03
 QETSC: Bins             =
                   -INF
-1.6866666666666665E+00
-1.5766925925925925E+00
-1.4825629629629629E+00
-1.3929481481481480E+00
-1.3135555555555554E+00
-1.1676923076923076E+00
-8.1064662540524601E-01
-7.1661302681992334E-01
-6.2635030103995615E-01
-5.3843705153294186E-01
-4.3941552511415521E-01
-3.4690208016235408E-01
-2.5431649831649827E-01
-1.6285858585858587E-01
-7.2407407407407406E-02
 0.0000000000000000E+00
QETSC: Started iter            2
QETSC: Bin type used         =           7
QETSC: Buffer used           =   0.0000000000000000E+00
QETSC: EPS interval          =      -INF,     0.000
QETSC: Inertia type          =           1
SLEPc: EPSSolve time = 5 2.284e-06
SLEPc: EPSSolve time = 0 3.920e-06
SLEPc: EPSSolve time = 9 5.467e+00
SLEPc: EPSSolve time = 4 5.991e+00
SLEPc: EPSSolve time = 15 6.275e+00
SLEPc: EPSSolve time = 6 8.936e+00
SLEPc: EPSSolve time = 1 1.009e+01
SLEPc: EPSSolve time = 10 1.109e+01
SLEPc: EPSSolve time = 2 1.674e+01
SLEPc: EPSSolve time = 11 1.675e+01
SLEPc: EPSSolve time = 12 1.707e+01
SLEPc: EPSSolve time = 7 1.773e+01
SLEPc: EPSSolve time = 8 1.882e+01
SLEPc: EPSSolve time = 13 1.888e+01
SLEPc: EPSSolve time = 3 1.940e+01
SLEPc: EPSSolve time = 14 1.956e+01
 QETSC: Eigenvalues         =
-1.6575748078742452E+00
-1.6412756902535977E+00
-1.6281966321130672E+00
-1.6151475121583057E+00
-1.6084039607481406E+00
-1.6034305631656032E+00
-1.5989905268291089E+00
-1.5966625359194151E+00
-1.5952286717392670E+00
-1.5873307756645794E+00
-1.5819270246798340E+00
-1.5799648061161349E+00
-1.5738984025172835E+00
-1.5697039951766292E+00
-1.5670832584998775E+00
-1.5666224245825302E+00
-1.5648000500892847E+00
-1.5595168211190058E+00
-1.5591315532661318E+00
-1.5564743480925598E+00
-1.5549190272296614E+00
-1.5509243305069473E+00
-1.5500057674701713E+00
-1.5494900224300341E+00
-1.5481087097529098E+00
-1.5422861210712362E+00
-1.5418101256259906E+00
-1.5411334375119101E+00
-1.5371296073517264E+00
-1.5354054601281075E+00
-1.5351523262700510E+00
-1.5336779874453528E+00
-1.5329312014047203E+00
-1.5320181518971536E+00
-1.5306575616822486E+00
-1.5297131691409558E+00
-1.5279654961552307E+00
-1.5274400781396757E+00
-1.5229012689677546E+00
-1.5202341509438864E+00
-1.5180393892878921E+00
-1.5170618842498675E+00
-1.5167194052394202E+00
-1.5144178401781025E+00
-1.5119129926057622E+00
-1.5108612653981659E+00
-1.5106774045800924E+00
-1.5090991054965530E+00
-1.5051579872238334E+00
-1.5042932061651626E+00
-1.5021926074932404E+00
-1.5015262297447520E+00
-1.4988497180187434E+00
-1.4969569243252758E+00
-1.4966067799533647E+00
-1.4934746131860059E+00
-1.4917098055065623E+00
-1.4894793267385518E+00
-1.4884890259107089E+00
-1.4882844286015691E+00
-1.4850099010000206E+00
-1.4828681899630318E+00
-1.4818171674687657E+00
-1.4806936192701796E+00
-1.4800820714486127E+00
-1.4787601585460375E+00
-1.4770995703422154E+00
-1.4741875403130609E+00
-1.4736665474896598E+00
-1.4717809998323099E+00
-1.4709973927169742E+00
-1.4700849301095649E+00
-1.4695167819511481E+00
-1.4679613030231056E+00
-1.4671197978489503E+00
-1.4662350328017573E+00
-1.4653115387375570E+00
-1.4646035160421009E+00
-1.4624801839854025E+00
-1.4621189149634515E+00
-1.4607465449900434E+00
-1.4589629732059495E+00
-1.4578555779274636E+00
-1.4555919846375762E+00
-1.4543232636299754E+00
-1.4530523484994848E+00
-1.4524650029946322E+00
-1.4520293809323992E+00
-1.4505959582336345E+00
-1.4482575755461564E+00
-1.4477601765619128E+00
-1.4470245522136063E+00
-1.4445991014680526E+00
-1.4430587150365042E+00
-1.4398300011127270E+00
-1.4382529535219541E+00
-1.4368804326602722E+00
-1.4360202252809795E+00
-1.4352960975529925E+00
-1.4343225301161173E+00
-1.4300328231719117E+00
-1.4289180485419930E+00
-1.4260957632041777E+00
-1.4255320667039368E+00
-1.4241880391789823E+00
-1.4213849788690640E+00
-1.4189040170042604E+00
-1.4180205259003285E+00
-1.4173348076195940E+00
-1.4155184900765820E+00
-1.4131683262855905E+00
-1.4127529461384325E+00
-1.4056366940668921E+00
-1.4052997133734495E+00
-1.4015161349093619E+00
-1.4011798320353976E+00
-1.3997661462599800E+00
-1.3992159560091451E+00
-1.3957918741058222E+00
-1.3917041740468352E+00
-1.3893521917454790E+00
-1.3862389907459836E+00
-1.3761768199387627E+00
-1.3692590892393040E+00
-1.3675261924053150E+00
-1.3659885833917473E+00
-1.3655349726326131E+00
-1.3413533690663753E+00
-8.7013121343327549E-01
-8.6920949230141631E-01
-8.5500283615357298E-01
-8.4972218819854739E-01
-8.4244266056825046E-01
-8.3769415546265513E-01
-8.3491365967450926E-01
-8.2384440057731656E-01
-8.2343902649830913E-01
-8.1953884944129973E-01
-8.1625341258252193E-01
-8.1487468552910525E-01
-8.1105916256447474E-01
-8.1027166741771517E-01
-8.0850345341024366E-01
-8.0620646910013127E-01
-8.0373896175643411E-01
-8.0176988542290950E-01
-8.0018788389686024E-01
-7.9822181047349550E-01
-7.9732235070668844E-01
-7.9638978399583338E-01
-7.9432765947209161E-01
-7.9232509999309331E-01
-7.9132220607656067E-01
-7.8961737366401097E-01
-7.8740898291735406E-01
-7.8518098361469824E-01
-7.8421082909010142E-01
-7.8081221180339422E-01
-7.7774412737655219E-01
-7.7705752638534176E-01
-7.7509269609331288E-01
-7.7398859176648171E-01
-7.7270198661116418E-01
-7.7111365944621135E-01
-7.6985855878946163E-01
-7.6801052464146613E-01
-7.6680975704215015E-01
-7.6347769756362183E-01
-7.6231150138381509E-01
-7.6106873127643127E-01
-7.5945380996722733E-01
-7.5842232370024798E-01
-7.5683220179077004E-01
-7.5480698984156691E-01
-7.5347431988754210E-01
-7.5035242091874710E-01
-7.4955391519568049E-01
-7.4847178746937681E-01
-7.4295042179271842E-01
-7.4194620751233353E-01
-7.4080004337901162E-01
-7.3886139624849456E-01
-7.3707044666392207E-01
-7.3620787476440752E-01
-7.3586550604538448E-01
-7.3420962018122660E-01
-7.3331559328005080E-01
-7.3295850852278288E-01
-7.3194094134698851E-01
-7.3079485678665768E-01
-7.2840551056800307E-01
-7.2776389516530382E-01
-7.2684318954969795E-01
-7.2530254913666092E-01
-7.2316212171054717E-01
-7.2173705908784347E-01
-7.2062018762945590E-01
-7.2038467702302800E-01
-7.1943412442069754E-01
-7.1879930679681792E-01
-7.1721097259619626E-01
-7.1518661297711039E-01
-7.1355141420904622E-01
-7.1327155598347680E-01
-7.1161526052581359E-01
-7.1116808369422069E-01
-7.1008047377581218E-01
-7.0783851955506749E-01
-7.0612340896129888E-01
-7.0461123825480698E-01
-7.0357653782735396E-01
-7.0111660234000206E-01
-7.0068566480229844E-01
-6.9908787163295361E-01
-6.9743725714032556E-01
-6.9628665811303325E-01
-6.9540329968317760E-01
-6.9350260414343923E-01
-6.9204402613065974E-01
-6.9018081696260181E-01
-6.8823721116955927E-01
-6.8661086737395649E-01
-6.8465180500442824E-01
-6.8372399998586242E-01
-6.8272953792806890E-01
-6.8150776347919118E-01
-6.8057594703105473E-01
-6.7930105440472888E-01
-6.7885999631751459E-01
-6.7501883116702210E-01
-6.7387186073258998E-01
-6.7340762367545570E-01
-6.7047583977347636E-01
-6.6854569370842065E-01
-6.6750810401633509E-01
-6.6601869115833379E-01
-6.6369988882095754E-01
-6.6245746784422266E-01
-6.6110960648992023E-01
-6.5841840861230327E-01
-6.5807970475057220E-01
-6.5589437003965145E-01
-6.5383619454299569E-01
-6.5356684734444193E-01
-6.5119042782355252E-01
-6.4963800846743858E-01
-6.4761052635896132E-01
-6.4572188786221518E-01
-6.4326068903032785E-01
-6.4180820571564778E-01
-6.4015090493355409E-01
-6.3947865026837047E-01
-6.3307538709903510E-01
-6.1687607911495601E-01
-6.0715487720218642E-01
-5.9004334402591607E-01
-5.6630979128107262E-01
-5.2291724080858470E-01
-5.1152383752759811E-01
-5.0032936895821789E-01
-4.9486498460102091E-01
-4.8447452944774949E-01
-4.7620236380121272E-01
-4.7433718588866230E-01
-4.7373559829692058E-01
-4.6840444024183986E-01
-4.6706927171348778E-01
-4.6500908723683382E-01
-4.5738429400492220E-01
-4.5511791982309024E-01
-4.5140557915787333E-01
-4.4887008892078423E-01
-4.4790476860880502E-01
-4.4543172903962230E-01
-4.4247902553353530E-01
-4.3837298743704850E-01
-4.3684265632813768E-01
-4.3662179585123884E-01
-4.3238530801653552E-01
-4.2790720087893280E-01
-4.2660227333629558E-01
-4.2456477333991016E-01
-4.2266656574716011E-01
-4.1952339510873421E-01
-4.1622449766748171E-01
-4.1613311974392581E-01
-4.1343142484829637E-01
-4.1137592449649918E-01
-4.0767311848602866E-01
-4.0632612124838113E-01
-4.0493846269056871E-01
-4.0329710701557314E-01
-4.0186234233385992E-01
-4.0063373520126072E-01
-3.9767245031973236E-01
-3.9559887252267983E-01
-3.9282139217807144E-01
-3.9016360487140728E-01
-3.8893536009628060E-01
-3.8752115045747404E-01
-3.8524381565278237E-01
-3.8360436387674857E-01
-3.8031598912535064E-01
-3.7656115493777481E-01
-3.7429870888919820E-01
-3.7076580861550679E-01
-3.6783055393459418E-01
-3.6628744861373813E-01
-3.6455655723271563E-01
-3.6378515081179918E-01
-3.6245563688048621E-01
-3.6032281000314703E-01
-3.5835026016147953E-01
-3.5747469269997345E-01
-3.5662702187628109E-01
-3.5377460518769244E-01
-3.5191876014096457E-01
-3.5032702073895522E-01
-3.4808628034241279E-01
-3.4631908478244666E-01
-3.4408878608845356E-01
-3.4317719907592004E-01
-3.4089467581505972E-01
-3.4034193615595776E-01
-3.3753140211622595E-01
-3.3533241763086319E-01
-3.3175538361489643E-01
-3.3090959150085308E-01
-3.2930008433772079E-01
-3.2684634562370118E-01
-3.2553103217985191E-01
-3.2352519788544193E-01
-3.2060029258076439E-01
-3.1867023275809592E-01
-3.1823762197306593E-01
-3.1664827781160088E-01
-3.1549054937061494E-01
-3.1219721879056572E-01
-3.1094929502690016E-01
-3.0969168919156720E-01
-3.0783045256763969E-01
-3.0548942734300683E-01
-3.0346415824909484E-01
-2.9987794048001470E-01
-2.9841109836652185E-01
-2.9661848346312963E-01
-2.9373203585235974E-01
-2.9230976171153777E-01
-2.9072093254580478E-01
-2.8936420822106002E-01
-2.8652822404501099E-01
-2.8425160239749880E-01
-2.8271535033250123E-01
-2.8182795718684278E-01
-2.7862983398468366E-01
-2.7711888517347039E-01
-2.7660229745920234E-01
-2.7413422496139855E-01
-2.7275554034872113E-01
-2.7097785710094840E-01
-2.6716724861811642E-01
-2.6703633169703639E-01
-2.6685751911698286E-01
-2.6368250513368546E-01
-2.6206607740699128E-01
-2.5999406779426454E-01
-2.5944803297925778E-01
-2.5725111465314981E-01
-2.5226295440709928E-01
-2.5168337584876105E-01
-2.4797911145131679E-01
-2.4711353726862342E-01
-2.4672192251026093E-01
-2.4528254696207283E-01
-2.4425792324678774E-01
-2.4101436442509214E-01
-2.3943921802953422E-01
-2.3794215639991140E-01
-2.3675656045778906E-01
-2.3499652997289083E-01
-2.3111732988960343E-01
-2.3009894897362496E-01
-2.2900826348340195E-01
-2.2782782380021360E-01
-2.2464143125801400E-01
-2.2335732361618371E-01
-2.2286911489854710E-01
-2.2212696357165143E-01
-2.2010615997591551E-01
-2.1858587321233014E-01
-2.1809511329040734E-01
-2.1770875008259066E-01
-2.1535781978982466E-01
-2.1440096529667796E-01
-2.1237664335366743E-01
-2.1146999742955119E-01
-2.1072180141738908E-01
-2.0982989377669520E-01
-2.0843643116798080E-01
-2.0797099246591091E-01
-2.0499930833381450E-01
-2.0264298073475115E-01
-2.0089894733857239E-01
-2.0023528361422516E-01
-1.9961306383882738E-01
-1.9824323291644042E-01
-1.9620748350419856E-01
-1.9554337328939264E-01
-1.9406823392802949E-01
-1.9200443443530166E-01
-1.9051902587518596E-01
-1.8939794138452162E-01
-1.8679114502956801E-01
-1.8620952002999250E-01
-1.8360787211904575E-01
-1.8217305032615447E-01
-1.8163532275687203E-01
-1.8064572622621311E-01
-1.7862763627331249E-01
-1.7736939256838050E-01
-1.7514284638581185E-01
-1.7446477147110603E-01
-1.7306235212318213E-01
-1.7272836128302110E-01
-1.7057085974829930E-01
-1.6914332180820432E-01
-1.6831641018174456E-01
-1.6717862011811038E-01
-1.6693930021063530E-01
-1.6514675786469427E-01
-1.6368970407789493E-01
-1.6297159521087012E-01
-1.6159337207336361E-01
-1.6029554424979311E-01
-1.5936438652505086E-01
-1.5786783864437723E-01
-1.5723671724675065E-01
-1.5579307268228312E-01
-1.5470597213542334E-01
-1.5394510844536746E-01
-1.5158609642919044E-01
-1.5020787649440392E-01
-1.4914908360045889E-01
-1.4831691081994106E-01
-1.4662689039839008E-01
-1.4572847552608015E-01
-1.4493262443030872E-01
-1.4439291829778575E-01
-1.4344445980846948E-01
-1.4160517635926032E-01
-1.3979688722661865E-01
-1.3879887762524859E-01
-1.3780016902970588E-01
-1.3620936716337417E-01
-1.3620027156227146E-01
-1.3383135992746553E-01
-1.3256881759170469E-01
-1.3162399348324069E-01
-1.3101949163416621E-01
-1.3020902053629024E-01
-1.2985562408320145E-01
-1.2741944324053683E-01
-1.2627075928486881E-01
-1.2488732593242813E-01
-1.2288301718029228E-01
-1.2014291848108417E-01
-1.1983426581445858E-01
-1.1917158579515225E-01
-1.1777276193167838E-01
-1.1755842646040984E-01
-1.1621859326715603E-01
-1.1445510995683189E-01
-1.1317439241532565E-01
-1.1203243456503761E-01
-1.1082444176690412E-01
-1.0962692344319339E-01
-1.0912147473588960E-01
-1.0824425479319223E-01
-1.0509591279635408E-01
-1.0437362300960004E-01
-1.0341382406357841E-01
-1.0113588672529628E-01
-1.0065293760622376E-01
-9.9165077981504243E-02
-9.7810029817092414E-02
-9.6229571498552990E-02
-9.4091590674617226E-02
-9.0655895223553065E-02
-8.9124040472090438E-02
-8.8560157506404807E-02
-8.7759297752045981E-02
-8.6283442119401962E-02
-8.4723830885624435E-02
-8.1989847433620380E-02
-7.9982471342684561E-02
-7.9046793533566931E-02
-7.7891124990144944E-02
-7.3009386905250578E-02
-6.8773088750832143E-02
-6.5727362047306545E-02
-6.4798272836920981E-02
-6.2906118506879410E-02
-5.8416285391148084E-02
-5.5738394509986307E-02
-5.2230747368609505E-02
-5.0987033325137814E-02
-4.4817057034327215E-02
-4.3508621972888822E-02
-4.2867347370370915E-02
-3.8124215069352499E-02
-3.4374700248862432E-02
-1.7895993454930949E-02
QETSC: Iter time (min)       =     2  30.40
QETSC: Iter time (max)       =     2  30.40
QETSC: Iter time (avg)       =     2  30.40
QETSC: Num. of conv. evals   =     2         512
QETSC: Eigenvalue (1)        =     2  -1.6575748078742452E+00
QETSC: Eigenvalue (nocc)     =     2  -1.7895993454930949E-02
QETSC: Max differrence       =     2   9.3840494770418803E-01
QETSC: Safe iteration        =     2      F
QETSC: Finished iter         =           2
 *****************************************************************
QETSC: SCF iter time=  30.410
 QETSC: Shifts, inertias         =
      -INF     0
    -2.300     0
    -2.147     0
    -1.993    14
    -1.840   128
    -1.687   128
    -1.533   128
    -1.380   128
    -1.227   128
    -1.073   170
    -0.920   256
    -0.767   350
    -0.613   487
    -0.460   512
    -0.307   512
    -0.153   512
     0.000   512
 QETSc: Custers,iter,crange,npcmax,trial 3 0.775507737913213591E-01 60 36
-2.0699999999999998E+00
-1.9825730994152044E+00
-1.9045614035087717E+00
-1.8413450292397660E+00
-1.1499999999999999E+00
-1.0697674418604650E+00
-9.9131782945736424E-01
-9.1347517730496441E-01
-8.3517730496453890E-01
-7.5659367396593669E-01
-6.8944038929440388E-01
-6.2228710462287096E-01
-5.4586666666666661E-01
-4.7226666666666661E-01
-4.5999999999999996E-01
 QETSC: Bins             =
                   -INF
-2.1466666666666665E+00
-2.0525146198830408E+00
-1.9669707602339179E+00
-1.8919181286549704E+00
-1.7030760233918127E+00
-1.1339534883720930E+00
-1.0540775193798448E+00
-9.7574929902688423E-01
-8.9781560283687933E-01
-8.1946057876481848E-01
-7.4316301703163012E-01
-6.7600973236009732E-01
-6.0700301703163007E-01
-5.3114666666666666E-01
-4.6981333333333331E-01
-4.5999999999999996E-01
QETSC: Started iter            3
QETSC: Bin type used         =           7
QETSC: Buffer used           =   0.0000000000000000E+00
QETSC: EPS interval          =      -INF,    -0.460
QETSC: Inertia type          =           1
SLEPc: EPSSolve time = 5 1.471e-06
SLEPc: EPSSolve time = 14 2.019e-06
SLEPc: EPSSolve time = 0 1.973e-06
SLEPc: EPSSolve time = 1 1.513e-06
SLEPc: EPSSolve time = 15 2.216e-06
SLEPc: EPSSolve time = 4 5.286e+00
SLEPc: EPSSolve time = 8 5.374e+00
SLEPc: EPSSolve time = 13 1.102e+01
SLEPc: EPSSolve time = 9 1.602e+01
SLEPc: EPSSolve time = 2 1.622e+01
SLEPc: EPSSolve time = 11 1.709e+01
SLEPc: EPSSolve time = 10 1.897e+01
SLEPc: EPSSolve time = 3 2.186e+01
SLEPc: EPSSolve time = 6 2.298e+01
SLEPc: EPSSolve time = 7 2.318e+01
SLEPc: EPSSolve time = 12 2.817e+01
 QETSC: Eigenvalues         =
-2.0267794589714181E+00
-2.0218813909438142E+00
-2.0164288657839773E+00
-2.0142206705821262E+00
-2.0139416428407273E+00
-2.0082000776133104E+00
-2.0069318533549776E+00
-2.0042187204849795E+00
-2.0025025545911954E+00
-2.0002337628889504E+00
-1.9988753324417348E+00
-1.9974655802848928E+00
-1.9956815820041469E+00
-1.9955030522079864E+00
-1.9929323812199231E+00
-1.9924816537308305E+00
-1.9914489703926816E+00
-1.9903395200346901E+00
-1.9896285246331749E+00
-1.9881707156961423E+00
-1.9852538217952862E+00
-1.9850903929617836E+00
-1.9842039596615106E+00
-1.9831151249345380E+00
-1.9822982538176770E+00
-1.9809938551987383E+00
-1.9800889186037789E+00
-1.9790345940556811E+00
-1.9784930975145223E+00
-1.9778079196170797E+00
-1.9767268230499835E+00
-1.9759788132068417E+00
-1.9757496189489174E+00
-1.9753469558534289E+00
-1.9747500860849032E+00
-1.9741195182410602E+00
-1.9731263080003798E+00
-1.9721562680389821E+00
-1.9712628290073588E+00
-1.9704658226635712E+00
-1.9703677157572197E+00
-1.9695928990227558E+00
-1.9691758340093739E+00
-1.9671011281273632E+00
-1.9666264181401976E+00
-1.9663951371986381E+00
-1.9653589384087868E+00
-1.9650455427536972E+00
-1.9646292601689253E+00
-1.9628595109314992E+00
-1.9625569467601189E+00
-1.9620354097051653E+00
-1.9612876229286438E+00
-1.9606483729174200E+00
-1.9598164626942480E+00
-1.9592069391466655E+00
-1.9589246707716315E+00
-1.9575817892550884E+00
-1.9571989982623355E+00
-1.9564288150140243E+00
-1.9556425442996674E+00
-1.9549124019365378E+00
-1.9543148704062241E+00
-1.9534230669568933E+00
-1.9532034301901771E+00
-1.9524535371879850E+00
-1.9517069491114882E+00
-1.9514784574219379E+00
-1.9508755923807817E+00
-1.9495384678465639E+00
-1.9494749569572958E+00
-1.9490980896499843E+00
-1.9486300174055757E+00
-1.9482553261405946E+00
-1.9475928051006643E+00
-1.9470732560957134E+00
-1.9463115452701254E+00
-1.9456139137233557E+00
-1.9439852228055305E+00
-1.9427530055873343E+00
-1.9424172960907620E+00
-1.9405020901850882E+00
-1.9399016582569071E+00
-1.9398014442030458E+00
-1.9391571300358024E+00
-1.9385861178900123E+00
-1.9373164203582942E+00
-1.9359900195003019E+00
-1.9354518292186380E+00
-1.9349186927678981E+00
-1.9342304502280494E+00
-1.9330800522887785E+00
-1.9327807953476468E+00
-1.9321214707274796E+00
-1.9315774458742614E+00
-1.9309169439304981E+00
-1.9302355142655450E+00
-1.9298444803327217E+00
-1.9298032383653376E+00
-1.9276938112576498E+00
-1.9272178953159802E+00
-1.9267826742537246E+00
-1.9262426650840294E+00
-1.9248025999441747E+00
-1.9246337625697203E+00
-1.9237305548449608E+00
-1.9228878573892776E+00
-1.9217962902492298E+00
-1.9214841156212494E+00
-1.9210781724500856E+00
-1.9199931806325341E+00
-1.9199012778011719E+00
-1.9187625414844911E+00
-1.9171441901538351E+00
-1.9168561828648172E+00
-1.9163991268282354E+00
-1.9143083652989585E+00
-1.9136854453421466E+00
-1.9131633021301604E+00
-1.9130069055594339E+00
-1.9128125228819162E+00
-1.9113239555363055E+00
-1.9110111908574137E+00
-1.9014039926272386E+00
-1.9001722134357202E+00
-1.8994397882373242E+00
-1.8978701675357479E+00
-1.8887402737498538E+00
-1.1246491871400359E+00
-1.1205350080568344E+00
-1.1187887897672031E+00
-1.1168563914076630E+00
-1.1153807218088365E+00
-1.1138605863594817E+00
-1.1120583629942777E+00
-1.1078010876252140E+00
-1.1048376949876531E+00
-1.1040441792221547E+00
-1.1025535694785726E+00
-1.1016462576604835E+00
-1.0993779854753241E+00
-1.0991053124671557E+00
-1.0989637116711086E+00
-1.0981019564301790E+00
-1.0953366676898044E+00
-1.0951291429983112E+00
-1.0944350457575560E+00
-1.0932156337481660E+00
-1.0923434120022093E+00
-1.0911147171212976E+00
-1.0898999072420972E+00
-1.0888983995695551E+00
-1.0876517559212122E+00
-1.0870799573691943E+00
-1.0856844353306572E+00
-1.0855689733182641E+00
-1.0849458844435487E+00
-1.0834663914733202E+00
-1.0831373340363217E+00
-1.0817561361559394E+00
-1.0802000007425323E+00
-1.0793882234545791E+00
-1.0786862825582222E+00
-1.0779793547200642E+00
-1.0772237067112813E+00
-1.0771021159336569E+00
-1.0762093309795155E+00
-1.0751199109607958E+00
-1.0748510004819378E+00
-1.0739509390910200E+00
-1.0717731896020462E+00
-1.0707416440599680E+00
-1.0704928472605841E+00
-1.0697877467749990E+00
-1.0688693152662541E+00
-1.0682386347884598E+00
-1.0670308375405755E+00
-1.0660968562540902E+00
-1.0654301183909116E+00
-1.0653594313286778E+00
-1.0643718584258197E+00
-1.0639549247257880E+00
-1.0623707247320067E+00
-1.0618497348757747E+00
-1.0613686802554245E+00
-1.0611574793192726E+00
-1.0607941133629319E+00
-1.0595467864137189E+00
-1.0591142262852202E+00
-1.0577526759481941E+00
-1.0573337660540487E+00
-1.0560329684260157E+00
-1.0557672598585752E+00
-1.0553315639460907E+00
-1.0541773893402895E+00
-1.0531816727279715E+00
-1.0522898299940968E+00
-1.0514285048178675E+00
-1.0512606547078409E+00
-1.0506764474003485E+00
-1.0498218034735274E+00
-1.0489699266085024E+00
[...]

/home/keceli/scratch2/siesta-qetsc/Obj/siesta on a arch-xl named Q02-I4-J06.vesta.itd with 16 processors, by Unknown Thu Jan 12 13:27:46 2017
Using Petsc Development GIT revision: v3.7.3-1204-g68f0caa  GIT Date: 2016-08-19 16:41:02 -0500

                         Max       Max/Min        Avg      Total 
Time (sec):           5.999e+02      1.00000   5.999e+02
Objects:              1.178e+03      1.33712   1.083e+03
Flops:                1.952e+10   4011.90360   1.298e+10  2.077e+11
Flops/sec:            3.254e+07   4011.90360   2.164e+07  3.463e+08
MPI Messages:         1.172e+04      2.22678   8.194e+03  1.311e+05
MPI Message Lengths:  9.785e+07      2.24076   9.013e+03  1.182e+09
MPI Reductions:       8.160e+03      1.00000

Flop counting convention: 1 flop = 1 real number operation of type (multiply/divide/add/subtract)
                            e.g., VecAXPY() for real vectors of length N --> 2N flops
                            and VecAXPY() for complex vectors of length N --> 8N flops

Summary of Stages:   ----- Time ------  ----- Flops -----  --- Messages ---  -- Message Lengths --  -- Reductions --
                        Avg     %Total     Avg     %Total   counts   %Total     Avg         %Total   counts   %Total 
 0:      Main Stage: 1.9346e-04   0.0%  0.0000e+00   0.0%  0.000e+00   0.0%  0.000e+00        0.0%  0.000e+00   0.0% 
 1:     siesta_init: 4.2070e+00   0.7%  0.0000e+00   0.0%  0.000e+00   0.0%  0.000e+00        0.0%  0.000e+00   0.0% 
 2:   siesta_forces: 3.3072e+01   5.5%  0.0000e+00   0.0%  0.000e+00   0.0%  0.000e+00        0.0%  0.000e+00   0.0% 
 3:    siesta_solve: 1.9591e-02   0.0%  0.0000e+00   0.0%  0.000e+00   0.0%  0.000e+00        0.0%  0.000e+00   0.0% 
 4:    siesta2qetsc: 7.2801e-01   0.1%  0.0000e+00   0.0%  9.900e+02   0.8%  3.760e+00        0.0%  6.900e+01   0.8% 
 5: qetsc_setup_eps: 2.3403e+01   3.9%  7.7854e+07   0.0%  1.698e+04  13.0%  7.833e+03       86.9%  5.400e+01   0.7% 
 6: qetsc_solve_eps: 3.8385e+02  64.0%  2.0764e+11 100.0%  3.900e+02   0.3%  1.785e-02        0.0%  1.040e+02   1.3% 
 7:   qetsc_eigvals: 1.8195e-01   0.0%  0.0000e+00   0.0%  0.000e+00   0.0%  0.000e+00        0.0%  0.000e+00   0.0% 
 8:   qetsc_density: 4.6343e+01   7.7%  0.0000e+00   0.0%  1.127e+05  86.0%  1.176e+03       13.0%  7.932e+03  97.2% 
10:     siesta_misc: 1.0696e+02  17.8%  0.0000e+00   0.0%  0.000e+00   0.0%  0.000e+00        0.0%  0.000e+00   0.0% 
11:     siesta_move: 1.0848e-01   0.0%  0.0000e+00   0.0%  0.000e+00   0.0%  0.000e+00        0.0%  0.000e+00   0.0% 
12: siesta_analysis: 6.5644e-02   0.0%  0.0000e+00   0.0%  0.000e+00   0.0%  0.000e+00        0.0%  0.000e+00   0.0% 
13:     qetsc_clean: 3.6466e-06   0.0%  0.0000e+00   0.0%  0.000e+00   0.0%  0.000e+00        0.0%  0.000e+00   0.0% 
14:      siesta_end: 9.4115e-01   0.2%  0.0000e+00   0.0%  0.000e+00   0.0%  0.000e+00        0.0%  0.000e+00   0.0% 

------------------------------------------------------------------------------------------------------------------------
See the 'Profiling' chapter of the users' manual for details on interpreting output.
Phase summary info:
   Count: number of times phase was executed
   Time and Flops: Max - maximum over all processors
                   Ratio - ratio of maximum to minimum over all processors
   Mess: number of messages sent
   Avg. len: average message length (bytes)
   Reduct: number of global reductions
   Global: entire computation
   Stage: stages of a computation. Set stages with PetscLogStagePush() and PetscLogStagePop().
      %T - percent time in this phase         %F - percent flops in this phase
      %M - percent messages in this phase     %L - percent message lengths in this phase
      %R - percent reductions in this phase
   Total Mflop/s: 10e-6 * (sum of flops over all processors)/(max time over all processors)
------------------------------------------------------------------------------------------------------------------------
Event                Count      Time (sec)     Flops                             --- Global ---  --- Stage ---   Total
                   Max Ratio  Max     Ratio   Max  Ratio  Mess   Avg len Reduct  %T %F %M %L %R  %T %F %M %L %R Mflop/s
------------------------------------------------------------------------------------------------------------------------

--- Event Stage 0: Main Stage


--- Event Stage 1: siesta_init


--- Event Stage 2: siesta_forces


--- Event Stage 3: siesta_solve


--- Event Stage 4: siesta2qetsc

MatConvert             2 1.0 1.5513e-03 1.4 0.00e+00 0.0 0.0e+00 0.0e+00 0.0e+00  0  0  0  0  0   0  0  0  0  0     0
MatAssemblyBegin      14 1.0 6.0281e-01319.3 0.00e+00 0.0 0.0e+00 0.0e+00 5.6e+01  0  0  0  0  1  44  0  0  0 81     0
MatAssemblyEnd        14 1.0 1.0207e-02 1.0 0.00e+00 0.0 9.9e+02 5.0e+02 1.1e+01  0  0  1  0  0   1  0100100 16     0
VecSet                 3 1.0 1.4458e-05 1.5 0.00e+00 0.0 0.0e+00 0.0e+00 0.0e+00  0  0  0  0  0   0  0  0  0  0     0

--- Event Stage 5: qetsc_setup_eps

MatCholFctrSym         1 1.0 1.1200e+00 1.0 0.00e+00 0.0 0.0e+00 0.0e+00 0.0e+00  0  0  0  0  0   5  0  0  0  0     0
MatCholFctrNum         6 1.0 1.8087e+01 1.1 0.00e+00 0.0 0.0e+00 0.0e+00 0.0e+00  3  0  0  0  0  72  0  0  0  0     0
MatCopy               16 1.0 6.9411e-01 1.0 0.00e+00 0.0 0.0e+00 0.0e+00 0.0e+00  0  0  0  0  0   3  0  0  0  0     0
MatConvert             4 1.0 3.0863e-02 2.5 0.00e+00 0.0 0.0e+00 0.0e+00 0.0e+00  0  0  0  0  0   0  0  0  0  0     0
MatScale              24 1.0 1.7823e-02 5.7 4.87e+06 1.0 0.0e+00 0.0e+00 0.0e+00  0  0  0  0  0   0100  0  0  0  4368
MatAssemblyBegin      25 1.0 8.0721e-05 2.0 0.00e+00 0.0 0.0e+00 0.0e+00 0.0e+00  0  0  0  0  0   0  0  0  0  0     0
MatAssemblyEnd        25 1.0 1.3595e-01 1.6 0.00e+00 0.0 0.0e+00 0.0e+00 0.0e+00  0  0  0  0  0   0  0  0  0  0     0
MatGetRow          50048 1.0 5.0704e-01 1.0 0.00e+00 0.0 0.0e+00 0.0e+00 0.0e+00  0  0  0  0  0   2  0  0  0  0     0
MatGetRowIJ            1 1.0 3.2375e-06 2.6 0.00e+00 0.0 0.0e+00 0.0e+00 0.0e+00  0  0  0  0  0   0  0  0  0  0     0
MatGetSubMatrice      14 1.0 1.4954e+00 1.1 0.00e+00 0.0 1.7e+04 6.1e+04 2.8e+01  0  0 13 87  0   6  0 99100 52     0
MatGetOrdering         1 1.0 4.1911e-04 1.3 0.00e+00 0.0 0.0e+00 0.0e+00 0.0e+00  0  0  0  0  0   0  0  0  0  0     0
MatZeroEntries         5 1.0 1.3068e-02 1.0 0.00e+00 0.0 0.0e+00 0.0e+00 0.0e+00  0  0  0  0  0   0  0  0  0  0     0
MatAXPY               18 1.0 1.5991e+00 1.0 0.00e+00 0.0 0.0e+00 0.0e+00 0.0e+00  0  0  0  0  0   7  0  0  0  0     0
MatRedundantMat       14 1.0 1.5187e+00 1.1 0.00e+00 0.0 1.7e+04 6.1e+04 2.8e+01  0  0 13 87  0   6  0 99100 52     0
VecSet                22 1.0 1.6288e-03 5.0 0.00e+00 0.0 0.0e+00 0.0e+00 0.0e+00  0  0  0  0  0   0  0  0  0  0     0
EPSSetUp               6 1.0 2.2178e+01 1.0 0.00e+00 0.0 2.6e+03 5.7e+04 2.8e+01  4  0  2 12  0  95  0 15 14 52     0
STSetUp               12 1.0 2.1402e+01 1.1 0.00e+00 0.0 0.0e+00 0.0e+00 2.0e+00  3  0  0  0  0  87  0  0  0  4     0
KSPSetUp               6 1.0 1.4090e-05 1.7 0.00e+00 0.0 0.0e+00 0.0e+00 0.0e+00  0  0  0  0  0   0  0  0  0  0     0
PCSetUp                6 1.0 1.9173e+01 1.1 0.00e+00 0.0 0.0e+00 0.0e+00 0.0e+00  3  0  0  0  0  77  0  0  0  0     0

--- Event Stage 6: qetsc_solve_eps

MatMult             9167 0.0 7.5327e+01 0.0 1.48e+10 0.0 0.0e+00 0.0e+00 0.0e+00  8 76  0  0  0  13 76  0  0  0  2101
MatSolve            3495 0.0 1.3905e+02 0.0 0.00e+00 0.0 0.0e+00 0.0e+00 0.0e+00 15  0  0  0  0  24  0  0  0  0     0
MatCholFctrNum        27 2.2 7.4659e+01 2.2 0.00e+00 0.0 0.0e+00 0.0e+00 0.0e+00  9  0  0  0  0  14  0  0  0  0     0
MatCopy               27 2.2 3.5330e+00 2.2 0.00e+00 0.0 0.0e+00 0.0e+00 0.0e+00  0  0  0  0  0   1  0  0  0  0     0
MatAssemblyBegin      54 2.2 6.3696e-05 2.2 0.00e+00 0.0 0.0e+00 0.0e+00 0.0e+00  0  0  0  0  0   0  0  0  0  0     0
MatAssemblyEnd        54 2.2 1.7531e-01 2.0 0.00e+00 0.0 0.0e+00 0.0e+00 0.0e+00  0  0  0  0  0   0  0  0  0  0     0
MatGetRow         238464 2.2 2.3892e+00 2.3 0.00e+00 0.0 0.0e+00 0.0e+00 0.0e+00  0  0  0  0  0   0  0  0  0  0     0
MatZeroEntries        27 2.2 3.8335e-02 1.2 0.00e+00 0.0 0.0e+00 0.0e+00 0.0e+00  0  0  0  0  0   0  0  0  0  0     0
MatAXPY               27 2.2 6.9309e+00 2.2 0.00e+00 0.0 0.0e+00 0.0e+00 0.0e+00  1  0  0  0  0   1  0  0  0  0     0
VecDot               920 0.0 1.4826e-02 0.0 5.42e+06 0.0 0.0e+00 0.0e+00 0.0e+00  0  0  0  0  0   0  0  0  0  0  2643
VecCopy             4122 0.0 3.5292e-02 0.0 0.00e+00 0.0 0.0e+00 0.0e+00 0.0e+00  0  0  0  0  0   0  0  0  0  0     0
VecSet             12818328.7 1.0517e-01377.5 0.00e+00 0.0 0.0e+00 0.0e+00 0.0e+00  0  0  0  0  0   0  0  0  0  0     0
VecSetRandom          13 0.0 2.2870e-02 0.0 0.00e+00 0.0 0.0e+00 0.0e+00 0.0e+00  0  0  0  0  0   0  0  0  0  0     0
EPSSetUp              13 1.0 4.6356e+01 1.0 0.00e+00 0.0 3.9e+02 6.0e+00 2.6e+01  8  0  0  0  0  12  0100100 25     0
EPSSolve              13 1.0 3.8390e+02 1.0 1.95e+10 0.0 3.9e+02 6.0e+00 1.0e+02 64100  0  0  1 100100100100100   541
STSetUp               20 1.0 2.3895e+01 1.1 0.00e+00 0.0 0.0e+00 0.0e+00 0.0e+00  4  0  0  0  0   6  0  0  0  0     0
STApply             3495 0.0 1.6850e+02 0.0 5.64e+09 0.0 0.0e+00 0.0e+00 0.0e+00 19 29  0  0  0  29 29  0  0  0   353
STMatSolve          3495 0.0 1.3969e+02 0.0 0.00e+00 0.0 0.0e+00 0.0e+00 0.0e+00 16  0  0  0  0  24  0  0  0  0     0
KSPSetUp              27 2.2 6.0007e-05 3.5 0.00e+00 0.0 0.0e+00 0.0e+00 0.0e+00  0  0  0  0  0   0  0  0  0  0     0
KSPSolve            3495 0.0 1.3925e+02 0.0 0.00e+00 0.0 0.0e+00 0.0e+00 0.0e+00 15  0  0  0  0  24  0  0  0  0     0
PCSetUp               27 2.2 7.4660e+01 2.2 0.00e+00 0.0 0.0e+00 0.0e+00 0.0e+00  9  0  0  0  0  14  0  0  0  0     0
PCApply             3495 0.0 1.3908e+02 0.0 0.00e+00 0.0 0.0e+00 0.0e+00 0.0e+00 15  0  0  0  0  24  0  0  0  0     0
BVCreate              40 0.0 2.6599e-02 0.0 0.00e+00 0.0 0.0e+00 0.0e+00 0.0e+00  0  0  0  0  0   0  0  0  0  0     0
BVCopy               639 0.0 6.3409e-03 0.0 0.00e+00 0.0 0.0e+00 0.0e+00 0.0e+00  0  0  0  0  0   0  0  0  0  0     0
BVMultVec           5002 0.0 2.3758e+00 0.0 1.88e+09 0.0 0.0e+00 0.0e+00 0.0e+00  0  9  0  0  0   0  9  0  0  0  7793
BVMultInPlace        208 0.0 5.8505e-01 0.0 1.09e+09 0.0 0.0e+00 0.0e+00 0.0e+00  0  6  0  0  0   0  6  0  0  0 20358
BVDotVec            5002 0.0 4.2300e+01 0.0 9.98e+09 0.0 0.0e+00 0.0e+00 0.0e+00  5 51  0  0  0   8 51  0  0  0  2528
BVOrthogonalizeV    2797 0.0 4.4744e+01 0.0 1.19e+10 0.0 0.0e+00 0.0e+00 0.0e+00  5 60  0  0  0   8 60  0  0  0  2803
BVScale             3495 0.0 3.8279e-02 0.0 1.03e+07 0.0 0.0e+00 0.0e+00 0.0e+00  0  0  0  0  0   0  0  0  0  0  2832
BVNormVec            920 0.0 7.6268e+00 0.0 1.49e+09 0.0 0.0e+00 0.0e+00 0.0e+00  1  5  0  0  0   1  5  0  0  0  1413
BVSetRandom           13 0.0 2.2967e-02 0.0 0.00e+00 0.0 0.0e+00 0.0e+00 0.0e+00  0  0  0  0  0   0  0  0  0  0     0
DSSolve              201 0.0 6.2120e-01 0.0 0.00e+00 0.0 0.0e+00 0.0e+00 0.0e+00  0  0  0  0  0   0  0  0  0  0     0
DSVectors           4033 0.0 9.9090e-03 0.0 0.00e+00 0.0 0.0e+00 0.0e+00 0.0e+00  0  0  0  0  0   0  0  0  0  0     0
DSOther              208 0.0 1.9758e-02 0.0 0.00e+00 0.0 0.0e+00 0.0e+00 0.0e+00  0  0  0  0  0   0  0  0  0  0     0

--- Event Stage 7: qetsc_eigvals


--- Event Stage 8: qetsc_density

VecCopy             6656 1.0 2.5278e-02 1.2 0.00e+00 0.0 0.0e+00 0.0e+00 0.0e+00  0  0  0  0  0   0  0  0  0  0     0
VecSet                 1 1.0 5.3081e-06 1.1 0.00e+00 0.0 0.0e+00 0.0e+00 0.0e+00  0  0  0  0  0   0  0  0  0  0     0
VecScatterBegin    13312 1.0 3.8967e+00 3.9 0.00e+00 0.0 1.0e+05 1.5e+03 6.7e+03  0  0 76 12 82   5  0 89 95 84     0
VecScatterEnd       6656 1.0 7.3801e-01 1.1 0.00e+00 0.0 0.0e+00 0.0e+00 0.0e+00  0  0  0  0  0   2  0  0  0  0     0
BVCopy              6656 1.0 6.8644e-02 1.3 0.00e+00 0.0 0.0e+00 0.0e+00 0.0e+00  0  0  0  0  0   0  0  0  0  0     0

--- Event Stage 9: Unknown


--- Event Stage 10: siesta_misc


--- Event Stage 11: siesta_move


--- Event Stage 12: siesta_analysis


--- Event Stage 13: qetsc_clean


--- Event Stage 14: siesta_end

------------------------------------------------------------------------------------------------------------------------

Memory usage is given in bytes:

Object Type          Creations   Destructions     Memory  Descendants' Mem.
Reports information only for process 0.

--- Event Stage 0: Main Stage


--- Event Stage 1: siesta_init


--- Event Stage 2: siesta_forces


--- Event Stage 3: siesta_solve


--- Event Stage 4: siesta2qetsc

              Matrix     9              0            0     0.
              Vector    19              1         1648     0.
      Vector Scatter     4              0            0     0.
           Index Set     4              4        53368     0.

--- Event Stage 5: qetsc_setup_eps

              Matrix    14              6     38346736     0.
              Vector    43             25       391480     0.
           Index Set    36             29        22736     0.
          EPS Solver     2              0            0     0.
  Spectral Transform     2              0            0     0.
       Krylov Solver     2              0            0     0.
      Preconditioner     2              0            0     0.
       Basis Vectors     8              5         5280     0.
         PetscRandom     1              0            0     0.
              Region     2              0            0     0.
       Direct Solver     2              0            0     0.

--- Event Stage 6: qetsc_solve_eps

              Matrix    12             12     78315408     0.
              Vector    65             65      1017848     0.
       Basis Vectors    13             13        13728     0.

--- Event Stage 7: qetsc_eigvals


--- Event Stage 8: qetsc_density

              Vector    14             13       327600     0.
      Vector Scatter   209            208       242112     0.
           Index Set   417            417       633104     0.

--- Event Stage 9: Unknown


--- Event Stage 10: siesta_misc


--- Event Stage 11: siesta_move

              Matrix     0             17     50051740     0.
              Vector     0             37      3051224     0.
      Vector Scatter     0              5         4944     0.
           Index Set     0              7        17264     0.
          EPS Solver     0              2        31772     0.
  Spectral Transform     0              2         1632     0.
       Krylov Solver     0              2         2336     0.
      Preconditioner     0              2         1952     0.
       Basis Vectors     0              3         3168     0.
         PetscRandom     0              1          638     0.
              Region     0              2         1312     0.
       Direct Solver     0              2       109992     0.

--- Event Stage 12: siesta_analysis


--- Event Stage 13: qetsc_clean


--- Event Stage 14: siesta_end

              Viewer     1              0            0     0.
========================================================================================================================
Average time to get PetscTime(): 1.24437e-07
Average time for MPI_Barrier(): 1.662e-06
Average time for zero size MPI_Send(): 1.11149e-05
#PETSc Option Table entries:
-eps_interval -2.3,0.
-eps_krylovschur_detect_zeros 0
-eps_krylovschur_partitions 16
-ioptbin 7
-ioptdensity 0
-ioptinertia 1
-ioptleft 2
-log_view
-mat_mumps_cntl_3 1e-12
-mat_mumps_icntl_13 1
-mat_mumps_icntl_23 0
-mat_mumps_icntl_24 1
-mat_mumps_icntl_7 5
-mat_type mpisbaij
-roptbuffer 0.1
-roptdiff 0.02
-writeeigs 1
#End of PETSc Option Table entries
Compiled with FORTRAN kernels
Compiled with full precision matrices (default)
sizeof(short) 2 sizeof(int) 4 sizeof(long) 8 sizeof(void*) 8 sizeof(PetscScalar) 8 sizeof(PetscInt) 4
Configure options: --known-has-attribute-aligned=1 --download-chaco=0 --download-cmake=0 --download-hypre=0 --download-metis=1 --download-mumps=1 --download-parmetis=1 --download-plapack=0 --download-prometheus=0 --download-ptscotch=1 --download-spai=0 --download-spooles=0 --download-superlu=0 --download-superlu_dist=0 --download-triangle=0 --known-bits-per-byte=8 --known-level1-dcache-assoc=0 --known-level1-dcache-linesize=32 --known-level1-dcache-size=32768 --known-memcmp-ok=1 --known-mpi-c-double-complex=1 --known-mpi-int64_t=1 --known-mpi-long-double=1 --known-mpi-shared-libraries=0 --known-sdot-returns-double=0 --known-sizeof-MPI_Comm=4 --known-sizeof-MPI_Fint=4 --known-sizeof-char=1 --known-sizeof-double=8 --known-sizeof-float=4 --known-sizeof-int=4 --known-sizeof-long-long=8 --known-sizeof-long=8 --known-sizeof-short=2 --known-sizeof-size_t=8 --known-sizeof-void-p=8 --known-snrm2-returns-double=0 --with-batch=1 --with-blacs-include=/soft/libraries/alcf/current/xl/SCALAPACK/ --with-blacs-lib=/soft/libraries/alcf/current/xl/SCALAPACK/lib/libscalapack.a --with-blas-lapack-lib="-L/soft/libraries/alcf/current/xl/LAPACK/lib -llapack -L/soft/libraries/alcf/current/xl/BLAS/lib -lblas" --with-cc=mpixlc_r --with-clib-autodetect=0 --with-cxx=mpixlcxx_r --with-cxxlib-autodetect=0 --with-debugging=0 --with-fc="mpixlf77_r -qnosave" --with-fortran-kernels=1 --with-fortranlib-autodetect=0 --with-is-color-value-type=short --with-scalapack-include=/soft/libraries/alcf/current/xl/SCALAPACK/ --with-scalapack-lib=/soft/libraries/alcf/current/xl/SCALAPACK/lib/libscalapack.a --with-shared-libraries=0 --with-x=0 -COPTFLAGS=" -g -O3 -qhot=level=0 -qsimd=auto -qmaxmem=-1 -qstrict -qstrict_induction" -CXXOPTFLAGS="  -g -O3 -qhot=level=0 -qsimd=auto -qmaxmem=-1 -qstrict -qstrict_induction" -FOPTFLAGS=" -g -O3 -qhot=level=0 -qsimd=auto -qmaxmem=-1 -qstrict -qstrict_induction" LIBS="-lmpichcxx-gcc -lmpichf77-gcc -L/soft/compilers/ibmcmp-feb2015/vacpp/bg/12.1/bglib64 -libmc++ -L/soft/compilers/ibmcmp-feb2015/xlf/bg/14.1/bglib64 -lxlf90_r -lxlomp_ser -lxlfmath" PETSC_ARCH=arch-xl
-----------------------------------------
Libraries compiled on Sat Aug 20 04:19:47 2016 on vestalac2 
Machine characteristics: Linux-2.6.32-573.18.1.el6.ppc64-ppc64-with-redhat-6.7-Santiago
Using PETSc directory: /home/keceli/scratch2/petsc
Using PETSc arch: arch-xl
-----------------------------------------

Using C compiler: mpixlc_r   -g -O3 -qhot=level=0 -qsimd=auto -qmaxmem=-1 -qstrict -qstrict_induction  ${COPTFLAGS} ${CFLAGS}
Using Fortran compiler: mpixlf77_r -qnosave  -g -O3 -qhot=level=0 -qsimd=auto -qmaxmem=-1 -qstrict -qstrict_induction   ${FOPTFLAGS} ${FFLAGS} 
-----------------------------------------

Using include paths: -I/home/keceli/scratch2/petsc/arch-xl/include -I/home/keceli/scratch2/petsc/include -I/home/keceli/scratch2/petsc/include -I/home/keceli/scratch2/petsc/arch-xl/include -I/bgsys/drivers/V1R2M4/ppc64/comm/include -I/bgsys/drivers/V1R2M4/ppc64/comm/lib/xl -I/bgsys/drivers/V1R2M4/ppc64 -I/bgsys/drivers/V1R2M4/ppc64/comm/sys/include -I/bgsys/drivers/V1R2M4/ppc64/spi/include -I/bgsys/drivers/V1R2M4/ppc64/spi/include/kernel/cnk
-----------------------------------------

Using C linker: mpixlc_r
Using Fortran linker: mpixlf77_r -qnosave
Using libraries: -Wl,-rpath,/home/keceli/scratch2/petsc/arch-xl/lib -L/home/keceli/scratch2/petsc/arch-xl/lib -lpetsc -Wl,-rpath,/home/keceli/scratch2/petsc/arch-xl/lib -L/home/keceli/scratch2/petsc/arch-xl/lib -lcmumps -ldmumps -lsmumps -lzmumps -lmumps_common -lpord -Wl,-rpath,/soft/libraries/alcf/current/xl/SCALAPACK/lib -L/soft/libraries/alcf/current/xl/SCALAPACK/lib -lscalapack -L/soft/libraries/alcf/current/xl/LAPACK/lib -llapack -L/soft/libraries/alcf/current/xl/BLAS/lib -lblas -lparmetis -lmetis -lptesmumps -lptscotch -lptscotcherr -lscotch -lscotcherr -lrt -lm -lpthread -ldl -lmpichcxx-gcc -lmpichf77-gcc -L/soft/compilers/ibmcmp-feb2015/vacpp/bg/12.1/bglib64 -libmc++ -L/soft/compilers/ibmcmp-feb2015/xlf/bg/14.1/bglib64 -lxlf90_r -lxlomp_ser -lxlfmath
-----------------------------------------

