s.subSiesta: Submission time = 04s25m17h
s.subSiesta: Job name = qw128_s64_n16_c16_vesta
s.subSiesta: Number of nodes = 16
s.subSiesta: Number of cores = 256
s.subSiesta: Number of cores/node = 16
s.subSiesta: Number of slices = 64
s.subSiesta: Mapping = ABCDET
04s25m17h
#QETSc options
-ioptbin 7
-ioptdensity 0
-ioptinertia 1
-ioptleft 2
-ioptwrite 1

#PETSc options
-mat_type mpisbaij
-log_view
#-mat_view
#-memory_view
#-mat_mumps_icntl_13 1 #turn off scaLAPACK for matrix inertia
#-mat_mumps_icntl_24 1 #null pivot row detection for matrix inertia
-mat_mumps_icntl_23 600
#-mat_mumps_icntl_28 1 # serial analysis
#-mat_mumps_icntl_28 2 #parallel analysis
#-mat_mumps_icntl_29 1 #ptscotch
#-mat_mumps_icntl_29 2 #parmetis
-mat_mumps_icntl_7 5 #metis
#-malloc_info 
#-mat_view ::ascii_info 
#-mat_getrow_uppertriangular 1
#-st_type sinvert 
#-st_ksp_type preonly 
#-st_pc_type cholesky 
#-st_pc_factor_mat_solver_package mumps 

#SLEPc options

#-eps_krylovschur_partitions 1  
-eps_interval -2.3,0.
#-eps_tol  1.e-8
-eps_krylovschur_detect_zeros 0
#-eps_purify 1
SystemName liquid_D2O_128
SystemLabel D2O_128

#UseTreeTimer .true.
DM.MixingWeight 0.3
DM.NumberPulay 3

SolutionMethod  qetsc #slepc0 for the older method
#SolutionMethod diagon
#BlockSize 23
WriteDM .false.
WriteDM.NetCDF .false.
WriteDMHS.NetCDF .false.
LongOutput .false.

#MaxSCFIterations 2
##################################################
# Do not change below this line                  #
##################################################

%block SuperCell
1 0 0
0 1 0
0 0 1
%endblock SuperCell

NumberOfAtoms 384
NumberOfSpecies 2

xc.functional GGA
xc.authors PBE 
MeshCutoff 150.0 Ry

%block ChemicalSpeciesLabel
  1   8  O
  2   1  H  
%endblock ChemicalSpeciesLabel

#%block AtomicMass
#  2   2.0
#%endblock AtomicMass

%Block PAO.Basis
O    3     -0.24233
n=2   0   2   E    23.36061     3.39721
     4.50769     2.64066
     1.00000     1.00000
n=2   1   2   E     2.78334     5.14253
     6.14996     2.59356
     1.00000     1.00000
n=3   2   1   E    63.98188     0.16104
     3.54403
     1.00000
H    2      0.46527
n=1   0   2   E    99.93138     2.59932
     4.20357     1.84463
     1.00000     1.00000
n=2   1   1   E    24.56504     2.20231
     3.52816
     1.00000
%EndBlock PAO.Basis

LatticeConstant 15.646046088993955 Ang
%block LatticeVectors   
  1.0  0.0  0.0
  0.0  1.0  0.0
  0.0  0.0  1.0
%endblock LatticeVectors   

AtomicCoordinatesFormat NotScaledCartesianAng
%block AtomicCoordinatesAndAtomicSpecies < coord128.data

Siesta Version: siesta-trunk-492
Architecture  : powerpc64-unknown-linux-gnu--Xlf
Compiler flags: mpixlf90_r -I/home/keceli/scratch2/petsc/include -I/home/keceli/scratch2/petssc/arch-xl/include -I/bgsys/drivers/V1R2M4/ppc64/comm/include -I/bgsys/drivers/V1R2M4/ppc64/comm/lib/xl -I/bgsys/drivers/V1R2M4/ppc64 -I/bgsys/drivers/V1R2M4/ppc64/comm/sys/include -I/bgsys/drivers/V1R2M4/ppc64/spi/include -I/bgsys/drivers/V1R2M4/ppc64/spi/include/kernel/cnk -I/home/keceli/scratch2/slepcfork/include -I/home/keceli/scratch2/slepcfork/arch-xl/include
PP flags      : -WF,-DMPI -WF,-DFC_HAVE_ABORT -WF,-DBSC_CELLXC -WF,-DMPI_TIMING 
PARALLEL version

* Running on  256 nodes in parallel
>> Start of run:  12-JAN-2017  17:26:08

                           ***********************       
                           *  WELCOME TO SIESTA  *       
                           ***********************       
WARNING: Siesta is reading its input from file INPUT_DEBUG

reinit: -----------------------------------------------------------------------
reinit: System Name: liquid_D2O_128
reinit: -----------------------------------------------------------------------
reinit: System Label: D2O_128                                                     
reinit: -----------------------------------------------------------------------

initatom: Reading input for the pseudopotentials and atomic orbitals ----------
Species number:   1 Atomic number:    8 Label: O
Species number:   2 Atomic number:    1 Label: H
 
Ground state valence configuration:   2s02  2p04
Reading pseudopotential information in formatted form from O.psf

Valence configuration for pseudopotential generation:
2s( 2.00) rc: 1.14
2p( 4.00) rc: 1.14
3d( 0.00) rc: 1.14
4f( 0.00) rc: 1.14
Ground state valence configuration:   1s01
Reading pseudopotential information in formatted form from H.psf

Valence configuration for pseudopotential generation:
1s( 0.60) rc: 1.25
2p( 0.00) rc: 1.25
3d( 0.00) rc: 1.25
4f( 0.00) rc: 1.25
For O, standard SIESTA heuristics set lmxkb to 3
 (one more than the basis l, including polarization orbitals).
Use PS.lmax or PS.KBprojectors blocks to override.
For H, standard SIESTA heuristics set lmxkb to 2
 (one more than the basis l, including polarization orbitals).
Use PS.lmax or PS.KBprojectors blocks to override.

<basis_specs>
===============================================================================
O                    Z=   8    Mass=  16.000        Charge=-0.24233    
Lmxo=2 Lmxkb= 3    BasisType=split      Semic=F
L=0  Nsemic=0  Cnfigmx=2
          n=1  nzeta=2  polorb=0
            splnorm:   0.15000    
               vcte:    23.361    
               rinn:    3.3972    
               qcoe:    0.0000    
               qyuk:    0.0000    
               qwid:   0.10000E-01
                rcs:    4.5077      2.6407    
            lambdas:    1.0000      1.0000    
L=1  Nsemic=0  Cnfigmx=2
          n=1  nzeta=2  polorb=0
            splnorm:   0.15000    
               vcte:    2.7833    
               rinn:    5.1425    
               qcoe:    0.0000    
               qyuk:    0.0000    
               qwid:   0.10000E-01
                rcs:    6.1500      2.5936    
            lambdas:    1.0000      1.0000    
L=2  Nsemic=0  Cnfigmx=3
          n=1  nzeta=1  polorb=0
            splnorm:   0.15000    
               vcte:    63.982    
               rinn:   0.16104    
               qcoe:    0.0000    
               qyuk:    0.0000    
               qwid:   0.10000E-01
                rcs:    3.5440    
            lambdas:    1.0000    
-------------------------------------------------------------------------------
L=0  Nkbl=1  erefs: 0.17977+309
L=1  Nkbl=1  erefs: 0.17977+309
L=2  Nkbl=1  erefs: 0.17977+309
L=3  Nkbl=1  erefs: 0.17977+309
===============================================================================
</basis_specs>

atom: Called for O                     (Z =   8)

read_vps: Pseudopotential generation method:
read_vps: ATM3      Troullier-Martins                       
Total valence charge:    6.00000

read_vps: Pseudopotential includes a core correction:
read_vps: Pseudo-core for xc-correction

xc_check: Exchange-correlation functional:
xc_check: GGA Perdew, Burke & Ernzerhof 1996
V l=0 = -2*Zval/r beyond r=  1.1278
V l=1 = -2*Zval/r beyond r=  1.1278
V l=2 = -2*Zval/r beyond r=  1.1278
V l=3 = -2*Zval/r beyond r=  1.1278
All V_l potentials equal beyond r=  1.1278
This should be close to max(r_c) in ps generation
All pots = -2*Zval/r beyond r=  1.1278

VLOCAL1: 99.0% of the norm of Vloc inside     34.126 Ry
VLOCAL1: 99.9% of the norm of Vloc inside     77.774 Ry
atom: Maximum radius for 4*pi*r*r*local-pseudopot. charge    1.37759
atom: Maximum radius for r*vlocal+2*Zval:    1.18566
GHOST: No ghost state for L =  0
GHOST: No ghost state for L =  1
GHOST: No ghost state for L =  2
GHOST: No ghost state for L =  3

KBgen: Kleinman-Bylander projectors: 
   l= 0   rc=  1.262145   el= -1.757696   Ekb=  9.253654   kbcos=  0.328369
   l= 1   rc=  1.262145   el= -0.664256   Ekb= -7.897175   kbcos= -0.393093
   l= 2   rc=  1.343567   el=  0.002031   Ekb= -1.922379   kbcos= -0.003517
   l= 3   rc=  1.394919   el=  0.003153   Ekb= -0.738278   kbcos= -0.000358

KBgen: Total number of  Kleinman-Bylander projectors:   16
atom: -------------------------------------------------------------------------

atom: SANKEY-TYPE ORBITALS:
atom: Selected multiple-zeta basis: split     

atom: basis set generated (by rescaling the valence charge)
atom: for an anion of charge  -0.2423

SPLIT: Orbitals with angular momentum L= 0

SPLIT: Basis orbitals for state 2s

   izeta = 1
                 lambda =    1.000000
                     rc =    4.574469
                 energy =   -1.754694
                kinetic =    1.490893
    potential(screened) =   -3.245588
       potential(ionic) =  -11.054474

   izeta = 2
                 rmatch =    2.639108
              splitnorm =    0.147036
                 energy =   -1.549986
                kinetic =    2.329570
    potential(screened) =   -3.879556
       potential(ionic) =  -12.328390

SPLIT: Orbitals with angular momentum L= 1

SPLIT: Basis orbitals for state 2p

   izeta = 1
                 lambda =    1.000000
                     rc =    6.174996
                 energy =   -0.657397
                kinetic =    4.283704
    potential(screened) =   -4.941101
       potential(ionic) =  -12.288569

   izeta = 2
                 rmatch =    2.639108
              splitnorm =    0.214885
                 energy =   -0.410839
                kinetic =    7.128014
    potential(screened) =   -7.538853
       potential(ionic) =  -16.113011

SPLIT: Orbitals with angular momentum L= 2

SPLIT: Basis orbitals for state 3d

   izeta = 1
                 lambda =    1.000000
                     rc =    3.562532
                 energy =    3.658838
                kinetic =    6.488135
    potential(screened) =   -2.829297
       potential(ionic) =  -10.001422
atom: Total number of Sankey-type orbitals: 13

atm_pop: Valence configuration (for local Pseudopot. screening):
 2s( 2.00)                                                            
 2p( 4.00)                                                            
 3d( 0.00)                                                            
Vna: chval, zval:    6.00000   6.00000

Vna:  Cut-off radius for the neutral-atom potential:   6.174996
comcore: Pseudo-core radius Rcore=  1.377587

atom: _________________________________________________________________________

<basis_specs>
===============================================================================
H                    Z=   1    Mass=  1.0100        Charge= 0.46527    
Lmxo=1 Lmxkb= 2    BasisType=split      Semic=F
L=0  Nsemic=0  Cnfigmx=1
          n=1  nzeta=2  polorb=0
            splnorm:   0.15000    
               vcte:    99.931    
               rinn:    2.5993    
               qcoe:    0.0000    
               qyuk:    0.0000    
               qwid:   0.10000E-01
                rcs:    4.2036      1.8446    
            lambdas:    1.0000      1.0000    
L=1  Nsemic=0  Cnfigmx=2
          n=1  nzeta=1  polorb=0
            splnorm:   0.15000    
               vcte:    24.565    
               rinn:    2.2023    
               qcoe:    0.0000    
               qyuk:    0.0000    
               qwid:   0.10000E-01
                rcs:    3.5282    
            lambdas:    1.0000    
-------------------------------------------------------------------------------
L=0  Nkbl=1  erefs: 0.17977+309
L=1  Nkbl=1  erefs: 0.17977+309
L=2  Nkbl=1  erefs: 0.17977+309
===============================================================================
</basis_specs>

atom: Called for H                     (Z =   1)

read_vps: Pseudopotential generation method:
read_vps: ATM 3.2.2 Troullier-Martins                       
Total valence charge:    0.60000

atom: Pseudopotential generated from an ionic configuration
atom: with net charge 0.40

xc_check: Exchange-correlation functional:
xc_check: GGA Perdew, Burke & Ernzerhof 1996
xc_check: WARNING: Pseudopotential generated with GGA revPBE functional
V l=0 = -2*Zval/r beyond r=  1.2343
V l=1 = -2*Zval/r beyond r=  1.2189
V l=2 = -2*Zval/r beyond r=  1.2189
All V_l potentials equal beyond r=  1.2343
This should be close to max(r_c) in ps generation
All pots = -2*Zval/r beyond r=  1.2343

VLOCAL1: 99.0% of the norm of Vloc inside     28.493 Ry
VLOCAL1: 99.9% of the norm of Vloc inside     64.935 Ry
atom: Maximum radius for 4*pi*r*r*local-pseudopot. charge    1.45251
atom: Maximum radius for r*vlocal+2*Zval:    1.21892
GHOST: No ghost state for L =  0
GHOST: No ghost state for L =  1
GHOST: No ghost state for L =  2

KBgen: Kleinman-Bylander projectors: 
   l= 0   rc=  1.364359   el= -0.835481   Ekb= -2.050473   kbcos= -0.374935
   l= 1   rc=  1.434438   el= -0.083696   Ekb= -0.439790   kbcos= -0.040392
   l= 2   rc=  1.470814   el= -0.018512   Ekb= -0.135383   kbcos= -0.004767

KBgen: Total number of  Kleinman-Bylander projectors:    9
atom: -------------------------------------------------------------------------

atom: SANKEY-TYPE ORBITALS:
atom: Selected multiple-zeta basis: split     

atom: basis set generated (by rescaling the valence charge)
atom: for a cation of charge   0.4653

SPLIT: Orbitals with angular momentum L= 0

SPLIT: Basis orbitals for state 1s

   izeta = 1
                 lambda =    1.000000
                     rc =    4.260636
                 energy =   -0.844786
                kinetic =    1.360018
    potential(screened) =   -2.204804
       potential(ionic) =   -2.290935

   izeta = 2
                 rmatch =    1.865767
              splitnorm =    0.575404
                 energy =    0.510436
                kinetic =    4.363202
    potential(screened) =   -3.852766
       potential(ionic) =   -3.849391

SPLIT: Orbitals with angular momentum L= 1

SPLIT: Basis orbitals for state 2p

   izeta = 1
                 lambda =    1.000000
                     rc =    3.576223
                 energy =    0.852340
                kinetic =    2.004908
    potential(screened) =   -1.152567
       potential(ionic) =   -1.298457
atom: Total number of Sankey-type orbitals:  5

atm_pop: Valence configuration (for local Pseudopot. screening):
 1s( 1.00)                                                            
 2p( 0.00)                                                            
Vna: chval, zval:    1.00000   1.00000

Vna:  Cut-off radius for the neutral-atom potential:   4.260636

atom: _________________________________________________________________________

prinput: Basis input ----------------------------------------------------------

PAO.BasisType split     

%block ChemicalSpeciesLabel
    1    8 O                       # Species index, atomic number, species label
    2    1 H                       # Species index, atomic number, species label
%endblock ChemicalSpeciesLabel

%block PAO.Basis                 # Define Basis set
O                     3  -0.242            # Label, l-shells, ionic net charge
 n=2   0   2                         # n, l, Nzeta 
   4.574      2.639   
   1.000      1.000   
 n=2   1   2                         # n, l, Nzeta 
   6.175      2.639   
   1.000      1.000   
 n=3   2   1                         # n, l, Nzeta 
   3.563   
   1.000   
H                     2   0.465            # Label, l-shells, ionic net charge
 n=1   0   2                         # n, l, Nzeta 
   4.261      1.866   
   1.000      1.000   
 n=2   1   1                         # n, l, Nzeta 
   3.576   
   1.000   
%endblock PAO.Basis

prinput: ----------------------------------------------------------------------

coor:   Atomic-coordinates input format  =     Cartesian coordinates
coor:                                          (in Angstroms)

siesta: Atomic coordinates (Bohr) and species
siesta:     26.49397   0.45353   4.66763  1        1
siesta:     26.96640   1.47399   3.25033  2        2
siesta:     25.77587   1.62517   5.85815  2        3
siesta:     20.33346  14.00288  21.97752  1        4
siesta:     21.22163  14.47531  20.46574  2        5
siesta:     18.59491  14.07847  21.50509  2        6
siesta:     11.07380   3.60938  13.00132  1        7
siesta:     11.41395   5.36682  12.83125  2        8
siesta:     11.58403   2.89128  11.43285  2        9
siesta:     14.09736  13.00132  25.01998  1       10
siesta:     14.15405  13.00132  26.83412  2       11
siesta:     13.53044  11.33836  24.56645  2       12
siesta:     17.17762   8.63605  20.03110  1       13
siesta:     16.83747   9.24076  18.34925  2       14
siesta:     18.95396   8.86282  20.23897  2       15
siesta:     22.75231   1.79524   9.37305  1       16
siesta:     21.27832   2.30547   8.48487  2       17
siesta:     23.45151   3.32592  10.03445  2       18
siesta:     27.17427  25.60580  26.85302  1       19
siesta:     28.61046  25.54911  27.94906  2       20
siesta:     27.57112  24.43417  25.53021  2       21
siesta:     24.09402  25.03888   4.02512  1       22
siesta:     23.67828  24.96329   2.26767  2       23
siesta:     24.75542  26.70184   4.28968  2       24
siesta:     28.81833  16.93195   4.57314  1       25
siesta:     29.17738  18.65160   4.13850  2       26
siesta:     29.02620  16.00599   3.04246  2       27
siesta:      3.17474   7.14317  26.24831  1       28
siesta:      1.79524   7.97465  25.45462  2       29
siesta:      4.62983   8.12583  25.81367  2       30
siesta:      1.56847   2.39995  27.68450  1       31
siesta:      0.15118   1.90862  26.68294  2       32
siesta:      2.22988   3.85504  26.85302  2       33
siesta:     21.97752   5.87705  29.00731  1       34
siesta:     21.33502   4.25189  28.51598  2       35
siesta:     21.18384   7.02978  27.87347  2       36
siesta:      2.81569  25.05778  28.47818  1       37
siesta:      3.53379  25.98374  29.85768  2       38
siesta:      3.38261  23.35702  28.74275  2       39
siesta:      2.05980   4.45976  19.10514  1       40
siesta:      0.77479   4.66763  17.83902  2       41
siesta:      3.36371   5.61249  18.61381  2       42
siesta:      9.12738  25.19006  29.38525  1       43
siesta:     10.37460  24.79322  28.13803  2       44
siesta:      7.54001  24.81211  28.59157  2       45
siesta:     20.99487   3.64717  16.91306  1       46
siesta:     19.33191   3.02356  17.30990  2       47
siesta:     21.78855   3.83615  18.51932  2       48
siesta:      2.04091  15.04223  21.58068  1       49
siesta:      1.11494  13.51155  21.42950  2       50
siesta:      2.47554  15.13671  23.33813  2       51
siesta:     16.47842   9.58092   2.28657  1       52
siesta:     17.95241   9.54312   3.34482  2       53
siesta:     16.74298  10.97931   1.19053  2       54
siesta:     25.90816   8.05024   4.72432  1       55
siesta:     26.00264   7.02978   6.21720  2       56
siesta:     26.55066   6.99199   3.40151  2       57
siesta:     10.56357  15.04223  21.08935  1       58
siesta:     12.32102  14.72097  21.37281  2       59
siesta:      9.80768  13.41706  21.08935  2       60
siesta:      7.97465  10.88483  12.77455  1       61
siesta:      7.02978   9.93996  11.56513  2       62
siesta:      7.36993  10.33681  14.38082  2       63
siesta:      2.30547  13.43596   7.38883  1       64
siesta:      1.58737  14.41862   6.04713  2       65
siesta:      2.83459  14.64538   8.61715  2       66
siesta:     12.66117   3.38261   7.67229  1       67
siesta:     12.30212   2.05980   6.50066  2       68
siesta:     12.49109   4.91329   6.70853  2       69
siesta:     26.55066   6.27389   9.44863  1       70
siesta:     25.43572   7.59670   9.95886  2       71
siesta:     28.19473   6.99199   9.59981  2       72
siesta:      7.89906   4.51645   3.28812  1       73
siesta:      8.86282   3.19364   4.06291  2       74
siesta:      6.29279   3.74166   2.91018  2       75
siesta:     28.85613  22.79011   3.74166  1       76
siesta:     27.43883  23.79166   4.25189  2       77
siesta:     30.29232  23.82946   4.08181  2       78
siesta:     15.38238  23.18695   9.52422  1       79
siesta:     16.47842  22.63893  10.84703  2       80
siesta:     16.47842  23.82946   8.23921  2       81
siesta:     23.64048  15.23120  17.51777  1       82
siesta:     24.35858  13.64383  17.08313  2       83
siesta:     24.45307  16.42173  16.42173  2       84
siesta:     23.45151   9.97776  10.90372  1       85
siesta:     21.73186   9.46753  11.13049  2       86
siesta:     23.39482  11.77300  11.01711  2       87
siesta:     11.01711   5.66918  18.25476  1       88
siesta:     11.41395   5.40462  16.49732  2       89
siesta:     11.09270   4.02512  18.97286  2       90
siesta:     22.35547  25.05778  19.72875  1       91
siesta:     21.20274  24.71763  21.08935  2       92
siesta:     23.43261  23.62159  19.67206  2       93
siesta:     21.76965  16.79967  27.74119  1       94
siesta:     21.46730  17.95241  26.38059  2       95
siesta:     22.80900  17.72564  28.89392  2       96
siesta:     21.59958  19.29411  23.22474  1       97
siesta:     20.42795  18.14138  22.44996  2       98
siesta:     23.22474  18.50043  22.99798  2       99
siesta:     20.22008   7.36993   4.81880  1      100
siesta:     21.71296   8.22031   5.40462  2      101
siesta:     20.71141   6.61404   3.25033  2      102
siesta:     16.42173   1.88973   2.19208  1      103
siesta:     15.79812   3.17474   1.07714  2      104
siesta:     14.94774   1.09604   2.85349  2      105
siesta:      8.46598  10.63916   3.53379  1      106
siesta:      9.24076  10.97931   1.94642  2      107
siesta:      8.84392  12.09425   4.55424  2      108
siesta:     17.10203  15.02333  29.66871  1      109
siesta:     15.89260  16.04378  28.76164  2      110
siesta:     18.70830  15.53355  29.02620  2      111
siesta:      5.78256   4.19519  12.35881  1      112
siesta:      4.89439   2.60782  12.32102  2      113
siesta:      7.48332   3.74166  12.73676  2      114
siesta:     14.04067  22.35547  16.95085  1      115
siesta:     13.34147  20.74920  16.49732  2      116
siesta:     14.17295  23.24364  15.38238  2      117
siesta:      8.42818  16.00599  26.19161  1      118
siesta:      6.76522  15.32568  26.45618  2      119
siesta:      9.01400  15.15561  24.69873  2      120
siesta:     -0.20787  22.35547  23.26254  1      121
siesta:      1.51178  22.52554  22.77121  2      122
siesta:     -1.02045  21.63737  21.82635  2      123
siesta:      1.49288   8.88172   9.33525  1      124
siesta:      1.92752  10.54468   8.76833  2      125
siesta:      3.00467   7.91796   9.16518  2      126
siesta:      4.81880  22.56334   8.10693  1      127
siesta:      4.83770  20.78700   7.78567  2      128
siesta:      5.78256  23.26254   6.74632  2      129
siesta:     16.72408   3.28812  20.10669  1      130
siesta:     16.62960   5.08337  20.06890  2      131
siesta:     15.02333   2.72121  19.86103  2      132
siesta:     29.91438  14.09736  14.75877  1      133
siesta:     29.08290  12.54779  15.13671  2      134
siesta:     28.61046  15.34458  14.85325  2      135
siesta:      8.18252  27.43883  18.78389  1      136
siesta:      6.40617  27.60891  19.02955  2      137
siesta:      8.42818  25.71918  18.31145  2      138
siesta:     27.77899   6.23610  21.73186  1      139
siesta:     29.21518   5.57469  20.86258  2      140
siesta:     27.11758   4.83770  22.65783  2      141
siesta:     29.68761  13.09581   1.07714  1      142
siesta:     28.15693  12.39661   0.39684  2      143
siesta:     30.65137  11.65961   1.58737  2      144
siesta:     19.40750  24.11291  24.01843  1      145
siesta:     17.87682  24.58535  23.16805  2      146
siesta:     19.27521  22.33657  24.22630  2      147
siesta:     23.75387  12.45330   3.68497  1      148
siesta:     23.79166  13.81390   4.87550  2      149
siesta:     24.67983  11.13049   4.47865  2      150
siesta:     22.29878  21.18384   9.01400  1      151
siesta:     20.93817  20.82479  10.16673  2      152
siesta:     21.97752  22.88459   8.46598  2      153
siesta:      6.85971  10.67696  25.98374  1      154
siesta:      7.23765  10.31791  24.26409  2      155
siesta:      8.06913   9.71320  26.92861  2      156
siesta:     13.13360  18.44373  28.89392  1      157
siesta:     11.50844  18.34925  28.11914  2      158
siesta:     12.98242  19.76654  30.12225  2      159
siesta:     26.19161   2.75900  25.09557  1      160
siesta:     24.45307   3.23143  24.90660  2      161
siesta:     26.49397   1.62517  23.71607  2      162
siesta:      8.46598  22.33657   4.53534  1      163
siesta:      7.86126  20.80589   3.76056  2      164
siesta:      8.22031  23.60269   3.26923  2      165
siesta:     25.37903  10.71475  16.27055  1      166
siesta:     24.45307   9.67540  17.42328  2      167
siesta:     24.81211  10.18563  14.62649  2      168
siesta:     20.50354   0.94486  23.43261  1      169
siesta:     19.97441   1.02045  25.15226  2      170
siesta:     19.10514   1.58737  22.48775  2      171
siesta:     14.02177   7.88016  24.11291  1      172
siesta:     15.04223   8.50377  22.75231  2      173
siesta:     13.36037   6.31169  23.50820  2      174
siesta:     11.71631  17.83902  16.93195  1      175
siesta:     10.96042  17.36659  18.51932  2      176
siesta:     10.60137  17.15872  15.68473  2      177
siesta:     17.65005   4.08181   8.08803  1      178
siesta:     17.97130   5.32903   6.80302  2      179
siesta:     15.85481   4.08181   8.25811  2      180
siesta:      6.51956  17.83902   2.72121  1      181
siesta:      5.65028  16.28945   3.04246  2      182
siesta:      5.97154  18.33035   1.07714  2      183
siesta:     18.57602  20.69251  13.19029  1      184
siesta:     18.25476  19.50198  14.51310  2      185
siesta:     18.57602  22.29878  14.02177  2      186
siesta:      3.42041  26.90971   4.25189  1      187
siesta:      4.38417  28.30811   4.89439  2      188
siesta:      2.04091  26.73964   5.40462  2      189
siesta:     29.19628  28.76164  14.77766  1      190
siesta:     28.13803  27.34435  14.49421  2      191
siesta:     30.21673  28.30811  16.19496  2      192
siesta:     12.73676  26.24831  13.19029  1      193
siesta:     13.60603  27.83568  13.11470  2      194
siesta:     13.03912  25.49242  11.56513  2      195
siesta:     26.26720  24.86881  12.83125  1      196
siesta:     24.62314  24.47196  12.18874  2      197
siesta:     27.36325  23.71607  11.96197  2      198
siesta:     11.24387  13.56824  29.70651  1      199
siesta:     12.50999  14.85325  29.91438  2      200
siesta:     10.05335  14.30523  28.55377  2      201
siesta:     22.58224  24.33968  28.49708  1      202
siesta:     21.37281  24.35858  27.13648  2      203
siesta:     24.15071  24.77432  27.70340  2      204
siesta:     11.82969   0.90707  20.59802  1      205
siesta:     11.30057   0.96376  22.33657  2      206
siesta:     10.73365  -0.32125  19.82323  2      207
siesta:      2.66451   4.34637   3.57158  1      208
siesta:      2.34326   6.10382   3.72276  2      209
siesta:      2.38106   3.96843   1.83304  2      210
siesta:     28.96951  18.34925  27.59001  1      211
siesta:     28.04355  18.51932  26.04044  2      212
siesta:     27.76009  18.67050  28.87503  2      213
siesta:      7.76678  25.64359  11.73520  1      214
siesta:      9.16518  26.32390  12.64227  2      215
siesta:      8.16362  23.88615  11.54623  2      216
siesta:     21.33502  26.60735  10.48798  1      217
siesta:     21.37281  26.66405  12.28322  2      218
siesta:     22.22319  28.08134   9.95886  2      219
siesta:      4.83770  10.43129  17.66895  1      220
siesta:      4.30858  12.15094  17.70674  2      221
siesta:      3.45820   9.54312  16.89416  2      222
siesta:      6.84081   7.82347   8.69274  1      223
siesta:      6.55735   6.33059   9.65650  2      224
siesta:      7.40773   7.21876   7.08648  2      225
siesta:     17.04534  10.56357  15.36348  1      226
siesta:     18.46263   9.69430  14.64538  2      227
siesta:     15.62804   9.99666  14.39972  2      228
siesta:     26.43728  28.11914  21.73186  1      229
siesta:     26.39948  27.74119  23.48931  2      230
siesta:     24.92550  27.36325  21.07045  2      231
siesta:     20.40905   1.05825  28.81833  1      232
siesta:     19.19963   1.53068  30.08445  2      233
siesta:     20.54133  -0.73699  28.96951  2      234
siesta:      9.78879  14.73987   6.16051  1      235
siesta:      9.46753  16.02488   4.93219  2      236
siesta:     11.56513  14.89105   6.50066  2      237
siesta:     24.49086  19.29411   1.28501  1      238
siesta:     23.92394  18.42484   2.77790  2      239
siesta:     24.58535  21.03266   1.79524  2      240
siesta:     24.37748  16.51621   7.16206  1      241
siesta:     26.07823  16.74298   6.55735  2      242
siesta:     23.71607  18.19807   7.31324  2      243
siesta:     15.15561  25.53021  21.63737  1      244
siesta:     14.75877  27.28766  21.35391  2      245
siesta:     15.21230  24.81211  19.97441  2      246
siesta:      3.26923  14.89105  26.55066  1      247
siesta:      2.68341  13.19029  26.58846  2      248
siesta:      2.11649  15.79812  27.57112  2      249
siesta:      0.86927   7.99354  15.09892  1      250
siesta:      1.20943   8.73054  13.47375  2      251
siesta:     -0.83148   7.44552  15.00443  2      252
siesta:      9.03289   6.42507  28.25142  1      253
siesta:      8.29590   5.99043  29.83879  2      254
siesta:     10.80924   6.21720  28.49708  2      255
siesta:     29.17738  11.18718  24.15071  1      256
siesta:     28.47818   9.82658  23.18695  2      257
siesta:     27.98686  11.47064  25.47352  2      258
siesta:     10.88483  26.15382   7.69119  1      259
siesta:     10.60137  24.39637   7.40773  2      260
siesta:      9.88327  26.53177   9.16518  2      261
siesta:     19.74765   9.88327  25.88926  1      262
siesta:     19.06734  11.31946  25.01998  2      263
siesta:     21.03266  10.56357  26.94751  2      264
siesta:      4.00622  20.01221  28.44039  1      265
siesta:      4.96998  18.99176  27.28766  2      266
siesta:      2.28657  19.70985  27.98686  2      267
siesta:     18.40594  24.47196   5.36682  1      268
siesta:     20.08780  23.82946   5.21565  2      269
siesta:     18.10358  25.32234   3.77945  2      270
siesta:     26.62625  18.10358  14.28634  1      271
siesta:     27.81678  19.29411  13.60603  2      272
siesta:     25.62470  17.61225  12.86904  2      273
siesta:      5.17785  28.87503  24.90660  1      274
siesta:      3.93063  28.28921  23.73497  2      275
siesta:      4.21409  29.61202  26.24831  2      276
siesta:      2.94797  20.65471  17.06423  1      277
siesta:      3.91173  21.33502  18.42484  2      278
siesta:      3.55269  18.95396  16.87526  2      279
siesta:      0.88817  21.37281  12.16984  1      280
siesta:      1.90862  22.29878  10.99821  2      281
siesta:      1.70075  21.61848  13.75721  2      282
siesta:      3.72276  17.61225  10.11004  1      283
siesta:      5.17785  17.36659  11.16829  2      284
siesta:      2.41885  18.14138  11.22498  2      285
siesta:      9.42974   2.58893  24.71763  1      286
siesta:      8.08803   1.37950  24.75542  2      287
siesta:      8.88172   3.89284  25.85146  2      288
siesta:      8.86282  20.69251  11.11159  1      289
siesta:      7.69119  20.69251   9.75099  2      290
siesta:      8.65495  19.04845  11.86748  2      291
siesta:     12.32102   8.03134   5.51800  1      292
siesta:     13.51155   8.27700   4.17630  2      293
siesta:     10.84703   8.91951   4.95108  2      294
siesta:      9.01400  20.67361  22.14760  1      295
siesta:      8.65495  21.80745  20.78700  2      296
siesta:      9.16518  19.04845  21.35391  2      297
siesta:     16.93195   0.52912  12.71786  1      298
siesta:     16.70519   2.02201  11.71631  2      299
siesta:     18.00910  -0.52912  11.71631  2      300
siesta:      9.27856   9.59981  20.93817  1      301
siesta:      7.55891   9.84548  20.40905  2      302
siesta:      9.76989   8.05024  20.12559  2      303
siesta:      3.15584   9.58092   3.38261  1      304
siesta:      2.66451   9.90217   5.10226  2      305
siesta:      4.85660  10.20453   3.26923  2      306
siesta:     13.85170  21.58068   4.04402  1      307
siesta:     15.25010  22.33657   4.87550  2      308
siesta:     12.39661  22.39326   4.76211  2      309
siesta:     26.02154  17.00754  21.80745  1      310
siesta:     27.62781  16.21386  22.09091  2      311
siesta:     25.41683  16.27055  20.27677  2      312
siesta:     26.58846  21.86414  18.25476  1      313
siesta:     26.70184  20.29567  17.36659  2      314
siesta:     26.55066  23.11136  16.95085  2      315
siesta:      2.21098  28.74275  20.10669  1      316
siesta:      0.43464  28.55377  20.44684  2      317
siesta:      2.49444  30.51909  20.23897  2      318
siesta:     11.73520  23.28144  25.60580  1      319
siesta:     10.75255  22.07201  24.67983  2      320
siesta:     12.88794  23.98063  24.37748  2      321
siesta:     25.22785  11.58403  28.17583  1      322
siesta:     24.62314  13.26588  28.00575  2      323
siesta:     24.45307  10.96042  29.66871  2      324
siesta:     27.00420   3.77945  16.32724  1      325
siesta:     27.98686   2.72121  15.25010  2      326
siesta:     25.32234   3.70386  15.64694  2      327
siesta:     14.30523   6.25500  28.83723  1      328
siesta:     15.19340   7.52111  29.76320  2      329
siesta:     14.15405   6.93530  27.17427  2      330
siesta:      4.93219  24.26409  21.05156  1      331
siesta:      3.85504  25.70029  20.76810  2      332
siesta:      5.95264  24.73652  22.44996  2      333
siesta:     17.72564  18.08469   4.06291  1      334
siesta:     17.53667  16.98864   2.62672  2      335
siesta:     16.45952  19.35080   3.83615  2      336
siesta:     18.06579  14.68318  12.85014  1      337
siesta:     17.47997  13.43596  14.02177  2      338
siesta:     17.02644  14.45641  11.37616  2      339
siesta:      5.61249   1.24722   6.87861  1      340
siesta:      4.89439   2.81569   6.31169  2      341
siesta:      4.72432   0.85038   8.39039  2      342
siesta:      4.34637  15.85481  16.96975  1      343
siesta:      3.70386  15.83591  18.67050  2      344
siesta:      3.04246  15.13671  15.96819  2      345
siesta:     12.45330   8.97620  12.33992  1      346
siesta:     10.84703   9.73209  12.66117  2      347
siesta:     12.69896   9.18407  10.56357  2      348
siesta:     22.37437   9.14628  19.86103  1      349
siesta:     22.43106  10.37460  21.20274  2      350
siesta:     23.43261   7.80457  20.42795  2      351
siesta:     14.62649  15.96819   8.40928  1      352
siesta:     13.09581  16.79967   8.90061  2      353
siesta:     15.38238  17.08313   7.21876  2      354
siesta:      0.01890  27.23096   8.12583  1      355
siesta:      0.94486  28.17583   9.35415  2      356
siesta:     -0.96376  28.47818   7.23765  2      357
siesta:      8.82502  22.63893  17.02644  1      358
siesta:      8.48487  22.97908  15.28789  2      359
siesta:     10.60137  22.86570  17.19651  2      360
siesta:     15.81701  10.62027   8.01244  1      361
siesta:     14.58869   9.95886   6.85971  2      362
siesta:     15.81701  12.39661   7.72898  2      363
siesta:     11.50844  29.47974   4.15740  1      364
siesta:     10.97931  28.78054   2.57003  2      365
siesta:     11.01711  28.25142   5.38572  2      366
siesta:     19.38860  25.56800  15.51466  1      367
siesta:     20.18228  25.39793  17.12093  2      368
siesta:     19.12404  27.34435  15.32568  2      369
siesta:     23.26254  15.04223  11.75410  1      370
siesta:     21.56178  15.17451  12.32102  2      371
siesta:     23.16805  15.30679   9.95886  2      372
siesta:     19.10514   7.84237  10.99821  1      373
siesta:     18.67050   6.40617   9.97776  2      374
siesta:     18.16028   9.20297  10.28011  2      375
siesta:     26.62625   4.04402   1.28501  1      376
siesta:     24.92550   4.08181   0.66140  2      377
siesta:     27.60891   3.32592  -0.05669  2      378
siesta:      3.32592  29.34746  11.67851  1      379
siesta:      4.64873  28.19473  12.15094  2      380
siesta:      1.88973  28.81833  12.64227  2      381
siesta:      8.10693  16.10047  13.19029  1      382
siesta:      6.97309  16.51621  14.53200  2      383
siesta:      8.06913  14.28634  13.13360  2      384

siesta: System type = bulk      

initatomlists: Number of atoms, orbitals, and projectors:    384  2944  4352

siesta: ******************** Simulation parameters ****************************
siesta:
siesta: The following are some of the parameters of the simulation.
siesta: A complete list of the parameters used, including default values,
siesta: can be found in file out.fdf
siesta:
redata: Non-Collinear-spin run           =     F
redata: SpinPolarized (Up/Down) run      =     F
redata: Number of spin components        =     1
redata: Long output                      =     F
redata: Number of Atomic Species         =        2
redata: Charge density info will appear in .RHO file
redata: Write Mulliken Pop.              =     NO
redata: Mesh Cutoff                      =   150.0000  Ry
redata: Net charge of the system         =     0.0000 |e|
redata: Min. number of SCF Iter          =        0
redata: Max. number of SCF Iter          =       50
redata: Mix DM or H after convergence    =     F
redata: Recompute H after scf cycle      =     F
redata: Performing Pulay mixing using    =     3 iterations
redata: Mix DM in first SCF step ?       =     F
redata: Write Pulay info on disk?        =     F
redata: Discard 1st Pulay DM after  kick =     F
redata: New DM Mixing Weight             =     0.3000
redata: New DM Occupancy tolerance       = 0.000000000001
redata: No kicks to SCF
redata: DM Mixing Weight for Kicks       =     0.5000
redata: DM Tolerance for SCF             =     0.000100
redata: Require (free) Energy convergence in SCF =     F
redata: DM (free)Energy tolerance for SCF =     0.000010 eV
redata: Require Harris convergence for SCF =     F
redata: DM Harris energy tolerance for SCF =     0.000010 eV
redata: Using Saved Data (generic)   =     F
redata: Use continuation files for DM    =     F
redata: Neglect nonoverlap interactions  =     F
redata: Method of Calculation            =     QETSc
redata: Fix the spin of the system       =     F
redata: Dynamics option                  =     Single-point calculation
redata: ***********************************************************************
Total number of electrons:  1024.000000
Total ionic charge:  1024.000000

* ProcessorY, Blocksize:   16  12


* Orbital distribution balance (max,min):    12     0

 Kpoints in:  1 . Kpoints trimmed:  1

siesta: k-grid: Number of k-points =     1
siesta: k-grid: Cutoff (effective) =     7.823 Ang
siesta: k-grid: Supercell and displacements
siesta: k-grid:    1   0   0      0.000
siesta: k-grid:    0   1   0      0.000
siesta: k-grid:    0   0   1      0.000

                     ====================================
                        Single-point calculation
                     ====================================

outcell: Unit cell vectors (Ang):
       15.646046    0.000000    0.000000
        0.000000   15.646046    0.000000
        0.000000    0.000000   15.646046

outcell: Cell vector modules (Ang)   :   15.646046   15.646046   15.646046
outcell: Cell angles (23,13,12) (deg):     90.0000     90.0000     90.0000
outcell: Cell volume (Ang**3)        :   3830.1327
New_DM. Step:     1
Initializing Density Matrix...
New grid distribution:   1
           1       1:   60    1:    4    1:    4
           2       1:   60    1:    4    5:    8
           3       1:   60    1:    4    9:   12
           4       1:   60    1:    4   13:   16
           5       1:   60    1:    4   17:   20
           6       1:   60    1:    4   21:   24
           7       1:   60    1:    4   25:   28
           8       1:   60    1:    4   29:   32
           9       1:   60    1:    4   33:   36
          10       1:   60    1:    4   37:   40
          11       1:   60    1:    4   41:   44
          12       1:   60    1:    4   45:   48
          13       1:   60    1:    4   49:   51
          14       1:   60    1:    4   52:   54
          15       1:   60    1:    4   55:   57
          16       1:   60    1:    4   58:   60
          17       1:   60    5:    8    1:    4
          18       1:   60    5:    8    5:    8
          19       1:   60    5:    8    9:   12
          20       1:   60    5:    8   13:   16
          21       1:   60    5:    8   17:   20
          22       1:   60    5:    8   21:   24
          23       1:   60    5:    8   25:   28
          24       1:   60    5:    8   29:   32
          25       1:   60    5:    8   33:   36
          26       1:   60    5:    8   37:   40
          27       1:   60    5:    8   41:   44
          28       1:   60    5:    8   45:   48
          29       1:   60    5:    8   49:   51
          30       1:   60    5:    8   52:   54
          31       1:   60    5:    8   55:   57
          32       1:   60    5:    8   58:   60
          33       1:   60    9:   12    1:    4
          34       1:   60    9:   12    5:    8
          35       1:   60    9:   12    9:   12
          36       1:   60    9:   12   13:   16
          37       1:   60    9:   12   17:   20
          38       1:   60    9:   12   21:   24
          39       1:   60    9:   12   25:   28
          40       1:   60    9:   12   29:   32
          41       1:   60    9:   12   33:   36
          42       1:   60    9:   12   37:   40
          43       1:   60    9:   12   41:   44
          44       1:   60    9:   12   45:   48
          45       1:   60    9:   12   49:   51
          46       1:   60    9:   12   52:   54
          47       1:   60    9:   12   55:   57
          48       1:   60    9:   12   58:   60
          49       1:   60   13:   16    1:    4
          50       1:   60   13:   16    5:    8
          51       1:   60   13:   16    9:   12
          52       1:   60   13:   16   13:   16
          53       1:   60   13:   16   17:   20
          54       1:   60   13:   16   21:   24
          55       1:   60   13:   16   25:   28
          56       1:   60   13:   16   29:   32
          57       1:   60   13:   16   33:   36
          58       1:   60   13:   16   37:   40
          59       1:   60   13:   16   41:   44
          60       1:   60   13:   16   45:   48
          61       1:   60   13:   16   49:   51
          62       1:   60   13:   16   52:   54
          63       1:   60   13:   16   55:   57
          64       1:   60   13:   16   58:   60
          65       1:   60   17:   20    1:    4
          66       1:   60   17:   20    5:    8
          67       1:   60   17:   20    9:   12
          68       1:   60   17:   20   13:   16
          69       1:   60   17:   20   17:   20
          70       1:   60   17:   20   21:   24
          71       1:   60   17:   20   25:   28
          72       1:   60   17:   20   29:   32
          73       1:   60   17:   20   33:   36
          74       1:   60   17:   20   37:   40
          75       1:   60   17:   20   41:   44
          76       1:   60   17:   20   45:   48
          77       1:   60   17:   20   49:   51
          78       1:   60   17:   20   52:   54
          79       1:   60   17:   20   55:   57
          80       1:   60   17:   20   58:   60
          81       1:   60   21:   24    1:    4
          82       1:   60   21:   24    5:    8
          83       1:   60   21:   24    9:   12
          84       1:   60   21:   24   13:   16
          85       1:   60   21:   24   17:   20
          86       1:   60   21:   24   21:   24
          87       1:   60   21:   24   25:   28
          88       1:   60   21:   24   29:   32
          89       1:   60   21:   24   33:   36
          90       1:   60   21:   24   37:   40
          91       1:   60   21:   24   41:   44
          92       1:   60   21:   24   45:   48
          93       1:   60   21:   24   49:   51
          94       1:   60   21:   24   52:   54
          95       1:   60   21:   24   55:   57
          96       1:   60   21:   24   58:   60
          97       1:   60   25:   28    1:    4
          98       1:   60   25:   28    5:    8
          99       1:   60   25:   28    9:   12
         100       1:   60   25:   28   13:   16
         101       1:   60   25:   28   17:   20
         102       1:   60   25:   28   21:   24
         103       1:   60   25:   28   25:   28
         104       1:   60   25:   28   29:   32
         105       1:   60   25:   28   33:   36
         106       1:   60   25:   28   37:   40
         107       1:   60   25:   28   41:   44
         108       1:   60   25:   28   45:   48
         109       1:   60   25:   28   49:   51
         110       1:   60   25:   28   52:   54
         111       1:   60   25:   28   55:   57
         112       1:   60   25:   28   58:   60
         113       1:   60   29:   32    1:    4
         114       1:   60   29:   32    5:    8
         115       1:   60   29:   32    9:   12
         116       1:   60   29:   32   13:   16
         117       1:   60   29:   32   17:   20
         118       1:   60   29:   32   21:   24
         119       1:   60   29:   32   25:   28
         120       1:   60   29:   32   29:   32
         121       1:   60   29:   32   33:   36
         122       1:   60   29:   32   37:   40
         123       1:   60   29:   32   41:   44
         124       1:   60   29:   32   45:   48
         125       1:   60   29:   32   49:   51
         126       1:   60   29:   32   52:   54
         127       1:   60   29:   32   55:   57
         128       1:   60   29:   32   58:   60
         129       1:   60   33:   36    1:    4
         130       1:   60   33:   36    5:    8
         131       1:   60   33:   36    9:   12
         132       1:   60   33:   36   13:   16
         133       1:   60   33:   36   17:   20
         134       1:   60   33:   36   21:   24
         135       1:   60   33:   36   25:   28
         136       1:   60   33:   36   29:   32
         137       1:   60   33:   36   33:   36
         138       1:   60   33:   36   37:   40
         139       1:   60   33:   36   41:   44
         140       1:   60   33:   36   45:   48
         141       1:   60   33:   36   49:   51
         142       1:   60   33:   36   52:   54
         143       1:   60   33:   36   55:   57
         144       1:   60   33:   36   58:   60
         145       1:   60   37:   40    1:    4
         146       1:   60   37:   40    5:    8
         147       1:   60   37:   40    9:   12
         148       1:   60   37:   40   13:   16
         149       1:   60   37:   40   17:   20
         150       1:   60   37:   40   21:   24
         151       1:   60   37:   40   25:   28
         152       1:   60   37:   40   29:   32
         153       1:   60   37:   40   33:   36
         154       1:   60   37:   40   37:   40
         155       1:   60   37:   40   41:   44
         156       1:   60   37:   40   45:   48
         157       1:   60   37:   40   49:   51
         158       1:   60   37:   40   52:   54
         159       1:   60   37:   40   55:   57
         160       1:   60   37:   40   58:   60
         161       1:   60   41:   44    1:    4
         162       1:   60   41:   44    5:    8
         163       1:   60   41:   44    9:   12
         164       1:   60   41:   44   13:   16
         165       1:   60   41:   44   17:   20
         166       1:   60   41:   44   21:   24
         167       1:   60   41:   44   25:   28
         168       1:   60   41:   44   29:   32
         169       1:   60   41:   44   33:   36
         170       1:   60   41:   44   37:   40
         171       1:   60   41:   44   41:   44
         172       1:   60   41:   44   45:   48
         173       1:   60   41:   44   49:   51
         174       1:   60   41:   44   52:   54
         175       1:   60   41:   44   55:   57
         176       1:   60   41:   44   58:   60
         177       1:   60   45:   48    1:    4
         178       1:   60   45:   48    5:    8
         179       1:   60   45:   48    9:   12
         180       1:   60   45:   48   13:   16
         181       1:   60   45:   48   17:   20
         182       1:   60   45:   48   21:   24
         183       1:   60   45:   48   25:   28
         184       1:   60   45:   48   29:   32
         185       1:   60   45:   48   33:   36
         186       1:   60   45:   48   37:   40
         187       1:   60   45:   48   41:   44
         188       1:   60   45:   48   45:   48
         189       1:   60   45:   48   49:   51
         190       1:   60   45:   48   52:   54
         191       1:   60   45:   48   55:   57
         192       1:   60   45:   48   58:   60
         193       1:   60   49:   51    1:    4
         194       1:   60   49:   51    5:    8
         195       1:   60   49:   51    9:   12
         196       1:   60   49:   51   13:   16
         197       1:   60   49:   51   17:   20
         198       1:   60   49:   51   21:   24
         199       1:   60   49:   51   25:   28
         200       1:   60   49:   51   29:   32
         201       1:   60   49:   51   33:   36
         202       1:   60   49:   51   37:   40
         203       1:   60   49:   51   41:   44
         204       1:   60   49:   51   45:   48
         205       1:   60   49:   51   49:   51
         206       1:   60   49:   51   52:   54
         207       1:   60   49:   51   55:   57
         208       1:   60   49:   51   58:   60
         209       1:   60   52:   54    1:    4
         210       1:   60   52:   54    5:    8
         211       1:   60   52:   54    9:   12
         212       1:   60   52:   54   13:   16
         213       1:   60   52:   54   17:   20
         214       1:   60   52:   54   21:   24
         215       1:   60   52:   54   25:   28
         216       1:   60   52:   54   29:   32
         217       1:   60   52:   54   33:   36
         218       1:   60   52:   54   37:   40
         219       1:   60   52:   54   41:   44
         220       1:   60   52:   54   45:   48
         221       1:   60   52:   54   49:   51
         222       1:   60   52:   54   52:   54
         223       1:   60   52:   54   55:   57
         224       1:   60   52:   54   58:   60
         225       1:   60   55:   57    1:    4
         226       1:   60   55:   57    5:    8
         227       1:   60   55:   57    9:   12
         228       1:   60   55:   57   13:   16
         229       1:   60   55:   57   17:   20
         230       1:   60   55:   57   21:   24
         231       1:   60   55:   57   25:   28
         232       1:   60   55:   57   29:   32
         233       1:   60   55:   57   33:   36
         234       1:   60   55:   57   37:   40
         235       1:   60   55:   57   41:   44
         236       1:   60   55:   57   45:   48
         237       1:   60   55:   57   49:   51
         238       1:   60   55:   57   52:   54
         239       1:   60   55:   57   55:   57
         240       1:   60   55:   57   58:   60
         241       1:   60   58:   60    1:    4
         242       1:   60   58:   60    5:    8
         243       1:   60   58:   60    9:   12
         244       1:   60   58:   60   13:   16
         245       1:   60   58:   60   17:   20
         246       1:   60   58:   60   21:   24
         247       1:   60   58:   60   25:   28
         248       1:   60   58:   60   29:   32
         249       1:   60   58:   60   33:   36
         250       1:   60   58:   60   37:   40
         251       1:   60   58:   60   41:   44
         252       1:   60   58:   60   45:   48
         253       1:   60   58:   60   49:   51
         254       1:   60   58:   60   52:   54
         255       1:   60   58:   60   55:   57
         256       1:   60   58:   60   58:   60

InitMesh: MESH =   120 x   120 x   120 =     1728000
InitMesh: (bp) =    60 x    60 x    60 =      216000
InitMesh: Mesh cutoff (required, used) =   150.000   162.575 Ry
ExtMesh (bp) on 0 =   112 x    56 x    56 =      351232
New grid distribution:   2
           1       1:   16    1:    8   38:   46
           2      48:   60    8:   16   53:   60
           3      16:   29   10:   15    1:    8
           4      16:   29    1:    8   14:   20
           5      30:   45    1:    8    1:    7
           6      16:   29   22:   29   14:   20
           7       1:   16   25:   30   47:   53
           8      31:   46    1:    9   29:   38
           9      17:   30    1:    9   29:   39
          10       1:   15   38:   45    1:    7
          11      30:   45    9:   15    1:    7
          12      30:   45   16:   21    1:    7
          13      47:   60   25:   30   36:   44
          14      29:   46   30:   35    1:    6
          15      16:   30    1:   11   54:   60
          16      31:   47    1:    8   54:   60
          17       1:   15    1:    9    1:    7
          18      16:   28   30:   36    1:    7
          19      30:   45    1:   10    8:   14
          20      30:   42    1:   10   15:   20
          21       1:   15    1:    8   47:   53
          22      46:   60    9:   15    1:    7
          23      17:   29   23:   29    1:    7
          24       1:   16    1:    9   29:   37
          25       1:   15    1:    7   21:   28
          26      17:   29   16:   22    1:    7
          27      17:   30    1:    8   40:   46
          28      31:   47    1:    8   45:   53
          29      17:   30   10:   16   29:   39
          30       1:   15    1:    7   14:   20
          31       1:   15    1:    9   54:   60
          32      46:   60   24:   29    1:    7
          33       1:   13   37:   44   44:   53
          34      46:   60   30:   36   15:   22
          35      46:   60    9:   15    8:   14
          36       1:   15   16:   21   14:   20
          37      43:   60   10:   16   15:   20
          38      43:   60    1:    9   21:   28
          39      16:   29   10:   15   21:   28
          40      47:   60   10:   17   29:   36
          41       1:   15   10:   15    1:    7
          42      47:   60   10:   17   37:   44
          43      17:   30    9:   16   40:   46
          44      31:   47    9:   16   45:   53
          45      16:   30    1:   10   47:   53
          46      16:   30   11:   17   47:   53
          47      31:   47    9:   16   54:   60
          48       1:   15    9:   15    8:   13
          49      47:   60    1:    9   29:   36
          50       1:   15   22:   29   14:   20
          51      48:   60    1:    7   45:   52
          52      46:   60   16:   21    8:   14
          53      46:   60    1:    8    1:    7
          54       1:   13   37:   44   54:   60
          55       1:   14   54:   60   10:   15
          56      31:   46   10:   17   29:   38
          57       1:   13   17:   23   29:   36
          58      31:   46   11:   17   39:   44
          59       1:   16    9:   16   38:   46
          60       1:   15    9:   17   47:   53
          61      43:   60   10:   16   21:   28
          62      48:   60    8:   16   45:   52
          63      48:   60    1:    7   53:   60
          64      16:   30   12:   17   54:   60
          65       1:   16   10:   16   29:   37
          66      46:   60   16:   23    1:    7
          67      51:   60   31:   38   36:   44
          68      44:   60   17:   21   15:   22
          69       1:   15    8:   15   14:   20
          70       1:   15   16:   21   21:   28
          71      16:   29   16:   21   21:   28
          72      14:   30   17:   22   29:   38
          73      31:   46   18:   23   29:   36
          74      31:   46   18:   22   37:   44
          75      14:   30   17:   23   39:   46
          76      44:   60   17:   23   45:   53
          77      16:   29    1:    9   21:   28
          78      31:   43   17:   22   45:   52
          79      44:   60   17:   24   54:   60
          80      31:   43   17:   23   53:   60
          81      47:   60    1:    9   37:   44
          82       1:   16   16:   22    1:    7
          83      46:   60   22:   29    8:   14
          84       1:   16   16:   22    8:   13
          85      44:   60   22:   29   15:   22
          86      28:   47   45:   51   45:   50
          87      44:   60   17:   22   23:   28
          88       1:   13   24:   30   29:   36
          89      17:   30   25:   30   47:   53
          90       1:   13   17:   24   37:   46
          91      47:   60   18:   24   36:   44
          92       1:   16   18:   24   47:   53
          93      16:   29    1:    9    1:    8
          94       1:   15   10:   17   54:   60
          95       1:   16   18:   24   54:   60
          96      14:   27   39:   44   29:   35
          97      30:   45   22:   29    1:    7
          98       1:   16   23:   29    1:    7
          99      30:   45   21:   29    8:   14
         100       1:   16   23:   29    8:   13
         101      30:   43   22:   29   15:   21
         102      16:   29   22:   29   21:   28
         103      16:   29   16:   21   14:   20
         104      14:   30   23:   30   29:   38
         105      47:   60   25:   30   29:   35
         106       1:   13   25:   30   37:   46
         107      14:   30   24:   30   39:   46
         108      44:   60   24:   30   45:   53
         109       1:   14   53:   60    1:    9
         110      46:   60    1:    8    8:   14
         111      31:   43   24:   30   53:   60
         112       1:   16   25:   30   54:   60
         113      30:   42    9:   16   21:   28
         114       1:   15    1:    8    8:   13
         115      17:   29   22:   29    8:   13
         116      14:   28   30:   39   16:   22
         117      29:   45   30:   38   15:   21
         118      30:   43   17:   22   22:   28
         119      14:   28   30:   38   23:   28
         120      31:   46   24:   30   29:   36
         121      30:   45   11:   15    8:   14
         122      31:   46   23:   30   37:   44
         123       1:   13   31:   36   44:   53
         124      14:   27   31:   36   44:   53
         125      43:   60    1:    9   15:   20
         126      31:   43   23:   30   45:   52
         127      44:   60   25:   30   54:   60
         128      17:   30   25:   30   54:   60
         129       1:   15   30:   37    1:    7
         130      44:   60   23:   29   23:   28
         131      29:   46   30:   37    7:   14
         132      47:   60   30:   35    8:   14
         133       1:   13   31:   36   35:   43
         134      46:   60   30:   36   23:   28
         135      29:   45   30:   37   22:   28
         136      28:   50   31:   39   29:   35
         137      14:   27   31:   38   29:   35
         138      28:   50   31:   37   36:   44
         139      14:   27   31:   38   36:   43
         140      16:   29    1:    8    9:   13
         141      28:   46   31:   36   45:   53
         142      30:   42    1:    8   21:   28
         143      47:   60   31:   37   53:   60
         144      28:   46   31:   35   54:   60
         145       1:   15   22:   29   21:   28
         146      30:   45   16:   20    8:   14
         147      29:   46   38:   43    7:   14
         148      47:   60   36:   43    8:   14
         149      46:   60   37:   45   15:   22
         150      29:   45   39:   45   15:   21
         151      14:   28   39:   46   23:   28
         152      51:   60   38:   46   29:   35
         153       1:   13   37:   44   29:   34
         154       1:   13   37:   44   35:   43
         155      51:   60   39:   46   36:   44
         156      28:   46   37:   44   45:   53
         157      47:   60   31:   37   45:   52
         158       1:   13   31:   36   54:   60
         159      28:   46   36:   44   54:   60
         160      14:   27   36:   44   54:   60
         161      29:   46   36:   43    1:    6
         162      48:   60   44:   50    1:    7
         163       1:   15   38:   45    8:   15
         164       1:   13   39:   46   16:   22
         165      14:   28   40:   46   16:   22
         166       1:   13   39:   46   23:   28
         167      29:   45   38:   45   22:   28
         168      28:   50   40:   46   29:   35
         169      16:   28   30:   37    8:   15
         170      28:   50   38:   46   36:   44
         171      14:   27   39:   44   36:   43
         172      47:   60   38:   44   45:   52
         173      14:   27   37:   44   44:   53
         174      16:   28   38:   45    8:   15
         175      47:   60   38:   44   53:   60
         176      16:   28   47:   52   22:   28
         177      29:   47   44:   51    1:    8
         178       1:   14   46:   52    1:    9
         179      15:   28   46:   51    1:    9
         180       1:   14   46:   53   10:   15
         181      44:   60   46:   53   15:   22
         182       1:   13   30:   38   16:   22
         183      44:   60   46:   52   23:   28
         184      16:   27   45:   50   29:   36
         185       1:   15   45:   52   29:   37
         186       1:   15   45:   52   38:   43
         187      16:   27   45:   51   37:   43
         188       1:   12   45:   53   44:   51
         189      51:   60   31:   37   29:   35
         190      28:   47   45:   51   51:   60
         191      13:   27   45:   50   51:   60
         192       1:   12   45:   51   52:   60
         193       1:   15   30:   37    8:   15
         194      16:   28   37:   45    1:    7
         195      15:   28   46:   52   10:   15
         196      29:   43   46:   51   15:   22
         197      31:   46    1:   10   39:   44
         198       1:   13   30:   38   23:   28
         199       1:   15   47:   54   22:   28
         200      28:   43   47:   52   29:   35
         201      16:   27   51:   60   29:   36
         202      28:   43   47:   52   36:   44
         203      30:   43   23:   29   22:   28
         204      30:   43   17:   21   15:   21
         205       1:   15    8:   15   21:   28
         206      48:   60   45:   52   45:   52
         207      48:   60   45:   51   53:   60
         208      14:   27   31:   35   54:   60
         209      29:   47   52:   60    1:    8
         210      17:   30   18:   24   47:   53
         211      48:   60   44:   52    8:   14
         212       1:   15   47:   53   16:   21
         213      29:   43   52:   60   15:   22
         214      29:   43   46:   52   23:   28
         215      29:   43   53:   60   23:   28
         216      44:   60   47:   52   29:   36
         217      16:   29    9:   15    9:   13
         218      16:   27   52:   60   37:   43
         219      13:   27   45:   52   44:   50
         220      28:   47   52:   60   45:   50
         221      16:   29    9:   15   14:   20
         222      28:   47   52:   60   51:   60
         223      48:   60   52:   60   53:   60
         224       1:   13   31:   36   29:   34
         225      48:   60   51:   60    1:    7
         226      17:   30   18:   24   54:   60
         227      29:   47   50:   60    9:   14
         228      15:   28   53:   60   10:   15
         229      44:   60   54:   60   15:   22
         230       1:   15   55:   60   22:   28
         231      16:   28   53:   60   22:   28
         232      44:   60   53:   60   29:   36
         233      28:   43   53:   60   29:   35
         234      28:   43   53:   60   36:   44
         235       1:   15   53:   60   38:   43
         236       1:   12   54:   60   44:   51
         237      48:   60   53:   60   45:   52
         238      13:   27   51:   60   51:   60
         239      47:   60   37:   43    1:    7
         240      16:   28   47:   52   16:   21
         241      15:   28   52:   60    1:    9
         242      44:   60   47:   52   37:   44
         243      48:   60   53:   60    8:   14
         244       1:   15   54:   60   16:   21
         245      47:   60   18:   24   29:   35
         246      16:   28   53:   60   16:   21
         247      44:   60   53:   60   23:   28
         248       1:   15   53:   60   29:   37
         249      47:   60   30:   36    1:    7
         250      44:   60   53:   60   37:   44
         251      17:   29   16:   21    8:   13
         252      13:   27   53:   60   44:   50
         253      46:   60   37:   45   23:   28
         254       1:   12   52:   60   52:   60
         255      29:   47   44:   49    9:   14
         256      30:   42   11:   16   15:   20
New grid distribution:   3
           1       1:   15   46:   53    1:    8
           2      46:   60   31:   38   39:   45
           3       1:   15   54:   60    1:    8
           4      16:   30   54:   60   54:   60
           5       1:   15   24:   30   31:   38
           6      16:   30   54:   60    1:    8
           7      16:   30   39:   45   54:   60
           8      16:   30    1:    8   31:   38
           9       1:   15    1:    8   31:   38
          10      16:   30   39:   45    1:    8
          11       1:   15    1:    8   39:   45
          12      46:   60    9:   15    9:   15
          13      16:   30    1:    8   46:   53
          14      46:   60    1:    8   24:   30
          15       1:   15    1:    8   54:   60
          16      46:   60   54:   60   24:   30
          17      46:   60   31:   38    1:    8
          18       1:   15   39:   45    1:    8
          19      16:   30    1:    8    9:   15
          20      31:   45    9:   15    9:   15
          21      46:   60    1:    8   16:   23
          22      16:   30   39:   45   24:   30
          23       1:   15    1:    8   24:   30
          24      31:   45    1:    8   24:   30
          25      46:   60   24:   30   16:   23
          26      16:   30   39:   45    9:   15
          27      16:   30    1:    8   39:   45
          28       1:   15    1:    8   46:   53
          29       1:   15   31:   38   16:   23
          30      46:   60   54:   60   46:   53
          31      16:   30    1:    8   54:   60
          32      16:   30   54:   60    9:   15
          33       1:   15   46:   53   16:   23
          34      16:   30    9:   15    1:    8
          35      31:   45   54:   60    1:    8
          36       1:   15    9:   15    9:   15
          37      46:   60   46:   53   31:   38
          38      31:   45    9:   15   16:   23
          39      46:   60    9:   15   24:   30
          40       1:   15    9:   15   31:   38
          41      31:   45   46:   53   31:   38
          42      46:   60   54:   60    1:    8
          43       1:   15    9:   15   24:   30
          44       1:   15    9:   15   46:   53
          45      31:   45   16:   23   31:   38
          46      31:   45    1:    8   54:   60
          47      31:   45    9:   15    1:    8
          48      31:   45    9:   15   54:   60
          49      31:   45    1:    8   46:   53
          50      46:   60    1:    8   54:   60
          51      46:   60   39:   45   16:   23
          52      16:   30    9:   15    9:   15
          53      46:   60   16:   23   16:   23
          54      46:   60    9:   15   16:   23
          55      31:   45    9:   15   24:   30
          56      16:   30    9:   15   31:   38
          57      46:   60   16:   23   31:   38
          58      31:   45    1:    8    9:   15
          59      46:   60    9:   15   39:   45
          60      16:   30    9:   15   46:   53
          61      31:   45    1:    8   31:   38
          62      46:   60    9:   15   46:   53
          63      46:   60   31:   38   24:   30
          64      46:   60    9:   15   54:   60
          65      46:   60    1:    8   31:   38
          66      46:   60   16:   23   39:   45
          67      31:   45   16:   23    9:   15
          68       1:   15   39:   45   39:   45
          69       1:   15   54:   60   39:   45
          70      46:   60   16:   23   24:   30
          71       1:   15   16:   23   24:   30
          72      16:   30   16:   23   31:   38
          73      31:   45   39:   45   46:   53
          74      16:   30   24:   30    9:   15
          75       1:   15   16:   23   39:   45
          76       1:   15   16:   23   46:   53
          77      16:   30   16:   23   46:   53
          78      31:   45   24:   30    1:    8
          79       1:   15   16:   23   54:   60
          80       1:   15   24:   30   39:   45
          81      16:   30   31:   38   31:   38
          82      31:   45    9:   15   46:   53
          83      46:   60   16:   23    9:   15
          84      31:   45   24:   30    9:   15
          85      31:   45   16:   23   16:   23
          86       1:   15   24:   30   24:   30
          87      16:   30   16:   23   24:   30
          88      31:   45   16:   23   24:   30
          89       1:   15   16:   23   31:   38
          90       1:   15    1:    8    9:   15
          91      16:   30   16:   23   39:   45
          92      16:   30   24:   30   39:   45
          93       1:   15   31:   38   31:   38
          94       1:   15   24:   30    1:    8
          95       1:   15   46:   53   24:   30
          96       1:   15    9:   15   39:   45
          97       1:   15   46:   53   31:   38
          98      16:   30   24:   30    1:    8
          99       1:   15   24:   30    9:   15
         100      31:   45   24:   30   16:   23
         101      31:   45   16:   23   46:   53
         102       1:   15   24:   30   16:   23
         103       1:   15   54:   60   16:   23
         104      46:   60   24:   30   24:   30
         105      46:   60    1:    8   46:   53
         106      46:   60   31:   38    9:   15
         107      31:   45   24:   30   39:   45
         108       1:   15   24:   30   46:   53
         109      46:   60   16:   23   46:   53
         110      46:   60   24:   30   46:   53
         111      46:   60   39:   45    1:    8
         112      46:   60   24:   30   54:   60
         113       1:   15   31:   38    1:    8
         114      46:   60   24:   30    1:    8
         115      46:   60   24:   30    9:   15
         116      16:   30   24:   30   16:   23
         117      31:   45   31:   38   16:   23
         118      31:   45   24:   30   24:   30
         119       1:   15   31:   38   24:   30
         120      16:   30   24:   30   31:   38
         121      31:   45   31:   38   31:   38
         122      46:   60    9:   15    1:    8
         123      16:   30   31:   38   39:   45
         124      46:   60   24:   30   39:   45
         125      16:   30   31:   38   46:   53
         126       1:   15   16:   23    9:   15
         127      31:   45   31:   38   54:   60
         128      31:   45   24:   30   54:   60
         129      16:   30   31:   38    1:    8
         130      46:   60   16:   23   54:   60
         131      16:   30   31:   38    9:   15
         132      16:   30   24:   30   24:   30
         133      46:   60   31:   38   16:   23
         134       1:   15    9:   15   16:   23
         135      16:   30   31:   38   24:   30
         136      16:   30    9:   15   39:   45
         137      46:   60   31:   38   31:   38
         138       1:   15   46:   53   39:   45
         139      31:   45   31:   38   39:   45
         140      16:   30    9:   15   24:   30
         141       1:   15   31:   38   46:   53
         142      16:   30   24:   30   54:   60
         143       1:   15   31:   38   54:   60
         144      46:   60   31:   38   54:   60
         145      31:   45   31:   38    1:    8
         146      31:   45   16:   23   54:   60
         147       1:   15   31:   38    9:   15
         148      31:   45   39:   45    9:   15
         149      16:   30   31:   38   16:   23
         150      31:   45   24:   30   46:   53
         151      31:   45   31:   38   24:   30
         152      31:   45   39:   45   24:   30
         153      31:   45   39:   45   31:   38
         154      31:   45   31:   38    9:   15
         155      46:   60   39:   45   39:   45
         156      46:   60   31:   38   46:   53
         157      31:   45   31:   38   46:   53
         158      46:   60   39:   45   46:   53
         159      16:   30   31:   38   54:   60
         160      46:   60   39:   45   54:   60
         161       1:   15   16:   23    1:    8
         162      31:   45    9:   15   31:   38
         163      46:   60   39:   45    9:   15
         164       1:   15   39:   45   16:   23
         165      16:   30    1:    8    1:    8
         166      16:   30   39:   45   16:   23
         167      46:   60   39:   45   24:   30
         168      46:   60   39:   45   31:   38
         169      31:   45    1:    8   16:   23
         170       1:   15   39:   45   31:   38
         171      31:   45   39:   45   39:   45
         172       1:   15   39:   45   46:   53
         173       1:   15    1:    8    1:    8
         174      16:   30   39:   45   46:   53
         175      31:   45   39:   45    1:    8
         176      31:   45   39:   45   54:   60
         177      46:   60   46:   53    1:    8
         178      16:   30    1:    8   24:   30
         179      16:   30   46:   53    9:   15
         180       1:   15   39:   45    9:   15
         181      31:   45   46:   53   16:   23
         182      31:   45   39:   45   16:   23
         183      46:   60   46:   53   24:   30
         184       1:   15   39:   45   24:   30
         185      31:   45    1:    8   39:   45
         186      16:   30   39:   45   39:   45
         187      16:   30   46:   53   39:   45
         188      16:   30   46:   53   46:   53
         189       1:   15   46:   53   46:   53
         190      16:   30   24:   30   46:   53
         191      46:   60   46:   53   54:   60
         192       1:   15   39:   45   54:   60
         193      31:   45   46:   53    1:    8
         194      16:   30   39:   45   31:   38
         195      46:   60   46:   53    9:   15
         196      31:   45    9:   15   39:   45
         197      46:   60   46:   53   16:   23
         198      16:   30   16:   23   54:   60
         199      31:   45   46:   53   24:   30
         200      16:   30    9:   15   54:   60
         201      16:   30   46:   53   31:   38
         202      31:   45   16:   23   39:   45
         203      46:   60   46:   53   39:   45
         204       1:   15    9:   15   54:   60
         205      31:   45   46:   53   46:   53
         206       1:   15   24:   30   54:   60
         207      16:   30   46:   53   54:   60
         208      31:   45   46:   53   54:   60
         209      16:   30   46:   53    1:    8
         210      31:   45   24:   30   31:   38
         211      31:   45   46:   53    9:   15
         212       1:   15   54:   60    9:   15
         213      16:   30   46:   53   16:   23
         214      46:   60   24:   30   31:   38
         215      16:   30   46:   53   24:   30
         216      31:   45   54:   60   24:   30
         217      46:   60    1:    8   39:   45
         218      46:   60   54:   60   39:   45
         219      31:   45   46:   53   39:   45
         220      46:   60   46:   53   46:   53
         221      16:   30   16:   23   16:   23
         222      31:   45   54:   60   46:   53
         223       1:   15   46:   53   54:   60
         224       1:   15   54:   60   54:   60
         225      46:   60   16:   23    1:    8
         226      46:   60    9:   15   31:   38
         227      31:   45   54:   60    9:   15
         228      31:   45   54:   60   16:   23
         229      46:   60    1:    8    1:    8
         230      46:   60   54:   60   16:   23
         231      16:   30   54:   60   24:   30
         232      16:   30   54:   60   31:   38
         233      16:   30    1:    8   16:   23
         234      46:   60   54:   60   31:   38
         235      16:   30   54:   60   39:   45
         236       1:   15   54:   60   46:   53
         237       1:   15    1:    8   16:   23
         238      16:   30    9:   15   16:   23
         239      46:   60    1:    8    9:   15
         240      31:   45   54:   60   54:   60
         241      16:   30   16:   23    1:    8
         242      16:   30   16:   23    9:   15
         243      46:   60   54:   60    9:   15
         244      16:   30   54:   60   16:   23
         245       1:   15   16:   23   16:   23
         246       1:   15   46:   53    9:   15
         247       1:   15   54:   60   24:   30
         248       1:   15   54:   60   31:   38
         249      31:   45   16:   23    1:    8
         250      31:   45   54:   60   31:   38
         251      31:   45   54:   60   39:   45
         252      16:   30   54:   60   46:   53
         253      31:   45    1:    8    1:    8
         254       1:   15    9:   15    1:    8
         255       1:   15   31:   38   39:   45
         256      46:   60   54:   60   54:   60
Setting up quadratic distribution...
ExtMesh (bp) on 0 =    68 x    60 x    61 =      248880
PhiOnMesh: Number of (b)points on node 0 =                 1152
PhiOnMesh: nlist on node 0 =                37569
QETSC: Last update           = Dec 15, 2016
QETSC: Number of ranks       =         256
QETSC: Number of slices      =          64
QETSC: Number of ranks/slice =           4
QETSC: Number of evals/slice =   8.00
QETSC: Number of req. evals  =         512
QETSC: Number of rows (all)  =        2944
QETSC: Number of rows (max)  =          12
QETSC: Number of rows (min)  =           0
QETSC: Density option        =           0
QETSC: Bin type given        =           7
QETSC: Inertia type          =           1
QETSC: Infinity type         =           2
QETSC: Write option          =           1
QETSC: Bin buffer given      =   0.10
QETSC: Diff thresh           =   0.02
QETSC: Number of nonzeros    =      808032
QETSC: Nonzero % (all)       =   9.32
QETSC: Nonzero % (max)       =  12.50
QETSC: Nonzero % (min)       =   5.81
 QETSC: Shifts, inertias         =
      -INF     0
    -2.300     0
    -2.263    54
    -2.227   128
    -2.190   128
    -2.154   128
    -2.117   128
    -2.081   128
    -2.044   128
    -2.008   128
    -1.971   128
    -1.935   128
    -1.898   128
    -1.862   128
    -1.825   128
    -1.789   128
    -1.752   128
    -1.716   128
    -1.679   128
    -1.643   128
    -1.606   128
    -1.570   128
    -1.533   128
    -1.497   128
    -1.460   128
    -1.424   128
    -1.387   128
    -1.351   128
    -1.314   166
    -1.278   247
    -1.241   256
    -1.205   256
    -1.168   260
    -1.132   302
    -1.095   354
    -1.059   384
    -1.022   384
    -0.986   417
    -0.949   512
    -0.913   512
    -0.876   512
    -0.840   512
    -0.803   512
    -0.767   512
    -0.730   512
    -0.694   512
    -0.657   512
    -0.621   512
    -0.584   512
    -0.548   512
    -0.511   512
    -0.475   512
    -0.438   512
    -0.402   512
    -0.365   512
    -0.329   512
    -0.292   512
    -0.256   512
    -0.219   512
    -0.183   512
    -0.146   512
    -0.110   512
    -0.073   512
    -0.037   512
     0.000   512
 QETSc: Custers,iter,crange,npcmax,trial 1 0.587576148632147112E-02 16 20
-2.2945914168136388E+00
-2.2885067607289828E+00
-2.2824221046443269E+00
-2.2763374485596706E+00
-2.2702527924750147E+00
-2.2641681363903587E+00
-2.2580652080652079E+00
-2.2521450021450020E+00
-2.2462247962247961E+00
-2.2403045903045902E+00
-2.2343843843843842E+00
-2.2284641784641783E+00
-2.2274774774774770E+00
-1.3450292397660817E+00
-1.3383040935672514E+00
-1.3315789473684210E+00
-1.3248538011695905E+00
-1.3181286549707603E+00
-1.3115814226925337E+00
-1.3052714089751127E+00
-1.2989613952576915E+00
-1.2926513815402703E+00
-1.2863413678228492E+00
-1.2800313541054280E+00
-1.2737213403880070E+00
-1.2656084656084656E+00
-1.2574955908289240E+00
-1.2493827160493827E+00
-1.2453262786596120E+00
-1.2047619047619047E+00
-1.1956349206349206E+00
-1.1865079365079365E+00
-1.1773809523809524E+00
[...]
Time (sec):           1.644e+02      1.00000   1.644e+02
Objects:              3.325e+03      1.07293   3.314e+03
Flops:                2.673e+09   7025.73125   1.550e+09  3.967e+11
Flops/sec:            1.626e+07   7025.73106   9.423e+06  2.412e+09
MPI Messages:         3.171e+04      2.72293   2.687e+04  6.878e+06
MPI Message Lengths:  1.008e+08      6.04020   2.986e+03  2.053e+10
MPI Reductions:       1.626e+04      1.29144

Flop counting convention: 1 flop = 1 real number operation of type (multiply/divide/add/subtract)
                            e.g., VecAXPY() for real vectors of length N --> 2N flops
                            and VecAXPY() for complex vectors of length N --> 8N flops

Summary of Stages:   ----- Time ------  ----- Flops -----  --- Messages ---  -- Message Lengths --  -- Reductions --
                        Avg     %Total     Avg     %Total   counts   %Total     Avg         %Total   counts   %Total 
 0:      Main Stage: 1.9620e-04   0.0%  0.0000e+00   0.0%  0.000e+00   0.0%  0.000e+00        0.0%  0.000e+00   0.0% 
 1:     siesta_init: 4.1588e+00   2.5%  0.0000e+00   0.0%  0.000e+00   0.0%  0.000e+00        0.0%  0.000e+00   0.0% 
 2:   siesta_forces: 1.6671e+01  10.1%  0.0000e+00   0.0%  0.000e+00   0.0%  0.000e+00        0.0%  0.000e+00   0.0% 
 3:    siesta_solve: 1.6332e-03   0.0%  0.0000e+00   0.0%  0.000e+00   0.0%  0.000e+00        0.0%  0.000e+00   0.0% 
 4:    siesta2qetsc: 9.7239e-02   0.1%  0.0000e+00   0.0%  1.060e+05   1.5%  3.448e-01        0.0%  6.900e+01   0.5% 
 5: qetsc_setup_eps: 1.9292e+01  11.7%  3.1141e+08   0.1%  1.138e+06  16.6%  6.456e+02       21.6%  3.580e+02   2.8% 
 6: qetsc_solve_eps: 1.0076e+02  61.3%  3.9637e+11  99.9%  3.169e+06  46.1%  2.312e+03       77.5%  3.744e+03  29.7% 
 7:   qetsc_eigvals: 1.2768e-02   0.0%  0.0000e+00   0.0%  0.000e+00   0.0%  0.000e+00        0.0%  0.000e+00   0.0% 
 8:   qetsc_density: 1.0314e+01   6.3%  0.0000e+00   0.0%  2.464e+06  35.8%  2.721e+01        0.9%  1.168e+04  92.7% 
10:     siesta_misc: 1.0735e+01   6.5%  0.0000e+00   0.0%  0.000e+00   0.0%  0.000e+00        0.0%  0.000e+00   0.0% 
11:     siesta_move: 1.2428e-01   0.1%  0.0000e+00   0.0%  0.000e+00   0.0%  0.000e+00        0.0%  0.000e+00   0.0% 
12: siesta_analysis: 1.3684e-02   0.0%  0.0000e+00   0.0%  0.000e+00   0.0%  0.000e+00        0.0%  0.000e+00   0.0% 
13:     qetsc_clean: 3.4479e-06   0.0%  0.0000e+00   0.0%  0.000e+00   0.0%  0.000e+00        0.0%  0.000e+00   0.0% 
14:      siesta_end: 2.2638e+00   1.4%  0.0000e+00   0.0%  0.000e+00   0.0%  0.000e+00        0.0%  0.000e+00   0.0% 

------------------------------------------------------------------------------------------------------------------------
See the 'Profiling' chapter of the users' manual for details on interpreting output.
Phase summary info:
   Count: number of times phase was executed
   Time and Flops: Max - maximum over all processors
                   Ratio - ratio of maximum to minimum over all processors
   Mess: number of messages sent
   Avg. len: average message length (bytes)
   Reduct: number of global reductions
   Global: entire computation
   Stage: stages of a computation. Set stages with PetscLogStagePush() and PetscLogStagePop().
      %T - percent time in this phase         %F - percent flops in this phase
      %M - percent messages in this phase     %L - percent message lengths in this phase
      %R - percent reductions in this phase
   Total Mflop/s: 10e-6 * (sum of flops over all processors)/(max time over all processors)
------------------------------------------------------------------------------------------------------------------------
Event                Count      Time (sec)     Flops                             --- Global ---  --- Stage ---   Total
                   Max Ratio  Max     Ratio   Max  Ratio  Mess   Avg len Reduct  %T %F %M %L %R  %T %F %M %L %R Mflop/s
------------------------------------------------------------------------------------------------------------------------

--- Event Stage 0: Main Stage


--- Event Stage 1: siesta_init


--- Event Stage 2: siesta_forces


--- Event Stage 3: siesta_solve


--- Event Stage 4: siesta2qetsc

MatConvert             2 1.0 1.7980e-03 1.9 0.00e+00 0.0 0.0e+00 0.0e+00 0.0e+00  0  0  0  0  0   2  0  0  0  0     0
MatAssemblyBegin      14 1.0 7.3223e-0212.9 0.00e+00 0.0 0.0e+00 0.0e+00 5.6e+01  0  0  0  0  0  50  0  0  0 81     0
MatAssemblyEnd        14 1.0 1.0257e-02 1.0 0.00e+00 0.0 1.1e+05 2.2e+01 1.1e+01  0  0  2  0  0  10  0100100 16     0
VecSet                 3 1.0 1.3326e-05 1.8 0.00e+00 0.0 0.0e+00 0.0e+00 0.0e+00  0  0  0  0  0   0  0  0  0  0     0

--- Event Stage 5: qetsc_setup_eps

MatCholFctrSym         1 1.0 6.1526e-01 1.0 0.00e+00 0.0 0.0e+00 0.0e+00 5.0e+00  0  0  0  0  0   3  0  0  0  1     0
MatCholFctrNum         6 1.0 1.4368e+01 1.1 0.00e+00 0.0 0.0e+00 0.0e+00 0.0e+00  8  0  0  0  0  72  0  0  0  0     0
MatCopy                5 1.0 6.1220e-01 1.0 0.00e+00 0.0 0.0e+00 0.0e+00 3.0e+01  0  0  0  0  0   3  0  0  0  8     0
MatConvert             1 1.0 5.0771e-03 5.3 0.00e+00 0.0 0.0e+00 0.0e+00 0.0e+00  0  0  0  0  0   0  0  0  0  0     0
MatScale              24 1.0 3.2448e-03 8.0 2.04e+06 5.4 0.0e+00 0.0e+00 0.0e+00  0  0  0  0  0   0100  0  0  0 95975
MatAssemblyBegin      39 1.0 2.7644e+00660.7 0.00e+00 0.0 0.0e+00 0.0e+00 1.0e+02  1  0  0  0  1   7  0  0  0 28     0
MatAssemblyEnd        39 1.0 1.1475e-01 1.2 0.00e+00 0.0 3.1e+04 2.3e+03 1.0e+02  0  0  0  0  1   1  0  3  2 28     0
MatGetRow          12512 1.0 4.6964e-01 4.3 0.00e+00 0.0 0.0e+00 0.0e+00 0.0e+00  0  0  0  0  0   2  0  0  0  0     0
MatGetSubMatrice      14 1.0 6.2711e-01 3.8 0.00e+00 0.0 1.1e+06 3.9e+03 2.8e+01  0  0 16 21  0   2  0 97 98  8     0
MatZeroEntries         5 1.0 2.7430e-03 4.0 0.00e+00 0.0 0.0e+00 0.0e+00 0.0e+00  0  0  0  0  0   0  0  0  0  0     0
MatAXPY               18 1.0 1.1445e+00 1.0 0.00e+00 0.0 2.1e+04 2.3e+03 9.6e+01  1  0  0  0  1   6  0  2  1 27     0
MatRedundantMat       14 1.0 2.0463e+00 1.1 0.00e+00 0.0 1.1e+06 3.9e+03 1.3e+02  1  0 16 21  1  10  0 98 99 36     0
MatMPIConcateSeq      14 1.0 1.7618e+00 1.3 0.00e+00 0.0 1.0e+04 2.3e+03 1.0e+02  1  0  0  0  1   8  0  1  1 28     0
VecSet                11 1.0 5.7614e-05 2.4 0.00e+00 0.0 0.0e+00 0.0e+00 0.0e+00  0  0  0  0  0   0  0  0  0  0     0
EPSSetUp               6 1.0 1.7662e+01 1.0 0.00e+00 0.0 1.9e+05 3.7e+03 2.7e+02 11  0  3  3  2  91  0 16 15 75     0
STSetUp               12 1.0 1.6745e+01 1.1 0.00e+00 0.0 2.1e+04 2.3e+03 1.4e+02 10  0  0  0  1  84  0  2  1 38     0
KSPSetUp               6 1.0 1.4115e-05 2.3 0.00e+00 0.0 0.0e+00 0.0e+00 0.0e+00  0  0  0  0  0   0  0  0  0  0     0
PCSetUp                6 1.0 1.4990e+01 1.1 0.00e+00 0.0 0.0e+00 0.0e+00 5.0e+00  9  0  0  0  0  75  0  0  0  1     0

--- Event Stage 6: qetsc_solve_eps

MatMult             3400 0.0 1.5047e+01 0.0 2.31e+09 0.0 2.3e+06 5.9e+03 0.0e+00  6 78 34 66  0  10 78 73 85  0 20665
MatSolve            1282 0.0 4.7625e+01 0.0 0.00e+00 0.0 8.1e+05 2.7e+03 1.1e+03 24  0 12 11  9  39  0 26 14 30     0
MatCholFctrNum        13 1.1 3.1702e+01 1.2 0.00e+00 0.0 0.0e+00 0.0e+00 0.0e+00 18  0  0  0  0  30  0  0  0  0     0
MatCopy               13 1.1 1.5921e+00 1.1 0.00e+00 0.0 0.0e+00 0.0e+00 7.8e+01  1  0  0  0  1   2  0  0  0  2     0
MatAssemblyBegin      26 1.1 3.1618e+00725.1 0.00e+00 0.0 0.0e+00 0.0e+00 1.0e+02  1  0  0  0  1   2  0  0  0  3     0
MatAssemblyEnd        26 1.1 1.3606e-01 1.1 0.00e+00 0.0 4.5e+04 2.3e+03 1.6e+02  0  0  1  0  1   0  0  1  1  4     0
MatGetRow          28704 1.1 1.0733e+00 4.7 0.00e+00 0.0 0.0e+00 0.0e+00 0.0e+00  0  0  0  0  0   1  0  0  0  0     0
MatZeroEntries        13 1.1 7.7564e-03 3.9 0.00e+00 0.0 0.0e+00 0.0e+00 0.0e+00  0  0  0  0  0   0  0  0  0  0     0
MatAXPY               13 1.1 2.4653e+00 1.1 0.00e+00 0.0 4.5e+04 2.3e+03 2.1e+02  1  0  1  0  2   2  0  1  1  6     0
VecDot               188 0.0 3.7378e-01 0.0 2.77e+05 0.0 0.0e+00 0.0e+00 1.0e+02  0  0  0  0  1   0  0  0  0  3   105
VecCopy               15 0.0 6.2669e-05 0.0 0.00e+00 0.0 0.0e+00 0.0e+00 0.0e+00  0  0  0  0  0   0  0  0  0  0     0
VecSet             11495957.9 4.1328e-021366.4 0.00e+00 0.0 0.0e+00 0.0e+00 0.0e+00  0  0  0  0  0   0  0  0  0  0     0
VecScatterBegin     5964 0.0 2.8605e+00 0.0 0.00e+00 0.0 3.1e+06 5.1e+03 1.1e+03  1  0 45 77  9   1  0 98 99 30     0
VecScatterEnd       4682 0.0 6.3278e+00 0.0 0.00e+00 0.0 0.0e+00 0.0e+00 0.0e+00  2  0  0  0  0   3  0  0  0  0     0
VecSetRandom          13 0.0 5.7816e-03 0.0 0.00e+00 0.0 0.0e+00 0.0e+00 0.0e+00  0  0  0  0  0   0  0  0  0  0     0
EPSSetUp              13 1.0 3.9173e+01 1.0 0.00e+00 0.0 4.6e+04 2.2e+03 4.4e+02 24  0  1  0  4  39  0  1  1 12     0
EPSSolve              13 1.0 1.0084e+02 1.0 2.67e+09 0.0 3.2e+06 5.0e+03 3.7e+03 61100 46 77 30 100100100100100  3931
STSetUp               20 1.0 1.9715e+01 1.1 0.00e+00 0.0 2.4e+04 2.3e+03 1.5e+02 11  0  0  0  1  18  0  1  0  4     0
STApply             1282 0.0 5.0993e+01 0.0 8.69e+08 0.0 1.7e+06 4.3e+03 1.1e+03 26 29 24 35  9  43 29 52 45 30  2246
STMatSolve          1282 0.0 4.7829e+01 0.0 0.00e+00 0.0 8.1e+05 2.7e+03 1.1e+03 24  0 12 11  9  39  0 26 14 30     0
KSPSetUp              13 1.1 2.5125e-05 2.0 0.00e+00 0.0 0.0e+00 0.0e+00 0.0e+00  0  0  0  0  0   0  0  0  0  0     0
KSPSolve            1282 0.0 4.7680e+01 0.0 0.00e+00 0.0 8.1e+05 2.7e+03 1.1e+03 24  0 12 11  9  39  0 26 14 30     0
PCSetUp               13 1.1 3.1702e+01 1.2 0.00e+00 0.0 0.0e+00 0.0e+00 0.0e+00 18  0  0  0  0  30  0  0  0  0     0
PCApply             1282 0.0 4.7632e+01 0.0 0.00e+00 0.0 8.1e+05 2.7e+03 1.1e+03 24  0 12 11  9  39  0 26 14 30     0
BVCreate              26 0.0 1.2529e-02 0.0 0.00e+00 0.0 0.0e+00 0.0e+00 1.5e+02  0  0  0  0  1   0  0  0  0  4     0
BVCopy                15 0.0 1.6033e-04 0.0 0.00e+00 0.0 0.0e+00 0.0e+00 0.0e+00  0  0  0  0  0   0  0  0  0  0     0
BVMultVec           2083 0.0 1.8925e-01 0.0 1.24e+08 0.0 0.0e+00 0.0e+00 0.0e+00  0  7  0  0  0   0  7  0  0  0 144366
BVMultInPlace         15 0.0 5.2822e-02 0.0 1.24e+08 0.0 0.0e+00 0.0e+00 0.0e+00  0  8  0  0  0   0  8  0  0  0 565369
BVDotVec            2083 0.0 9.4851e+00 0.0 1.54e+09 0.0 1.4e+06 5.9e+03 1.8e+03  5 54 20 40 14   8 54 44 51 48 22524
BVOrthogonalizeV    1101 0.0 9.6711e+00 0.0 1.66e+09 0.0 1.4e+06 5.9e+03 1.8e+03  5 61 20 40 14   8 61 44 51 48 24916
BVScale             1282 0.0 9.0654e-03 0.0 9.44e+05 0.0 0.0e+00 0.0e+00 0.0e+00  0  0  0  0  0   0  0  0  0  0 23062
BVNormVec            188 0.0 8.4537e-01 0.0 1.28e+08 0.0 8.0e+04 5.9e+03 1.0e+02  0  3  1  2  1   0  3  3  3  3 12747
BVSetRandom           13 0.0 5.9194e-03 0.0 0.00e+00 0.0 0.0e+00 0.0e+00 0.0e+00  0  0  0  0  0   0  0  0  0  0     0
DSSolve               15 0.0 1.9714e-01 0.0 0.00e+00 0.0 0.0e+00 0.0e+00 0.0e+00  0  0  0  0  0   0  0  0  0  0     0
DSVectors           1136 0.0 2.6633e-03 0.0 0.00e+00 0.0 0.0e+00 0.0e+00 0.0e+00  0  0  0  0  0   0  0  0  0  0     0
DSOther               15 0.0 6.7185e-03 0.0 0.00e+00 0.0 0.0e+00 0.0e+00 0.0e+00  0  0  0  0  0   0  0  0  0  0     0

--- Event Stage 7: qetsc_eigvals


--- Event Stage 8: qetsc_density

VecCopy             6656 1.0 1.3830e-02 1.8 0.00e+00 0.0 0.0e+00 0.0e+00 0.0e+00  0  0  0  0  0   0  0  0  0  0     0
VecSet                 1 1.0 6.9019e-06 1.5 0.00e+00 0.0 0.0e+00 0.0e+00 0.0e+00  0  0  0  0  0   0  0  0  0  0     0
VecScatterBegin    13312 1.0 4.6764e+00 4.2 0.00e+00 0.0 1.6e+06 9.5e+01 6.7e+03  1  0 24  1 53  21  0 67 83 57     0
VecScatterEnd       6656 1.0 1.9565e+00347.6 0.00e+00 0.0 0.0e+00 0.0e+00 0.0e+00  1  0  0  0  0  18  0  0  0  0     0
BVCopy              6656 1.0 4.5210e-02 1.2 0.00e+00 0.0 0.0e+00 0.0e+00 0.0e+00  0  0  0  0  0   0  0  0  0  0     0

--- Event Stage 9: Unknown


--- Event Stage 10: siesta_misc


--- Event Stage 11: siesta_move


--- Event Stage 12: siesta_analysis


--- Event Stage 13: qetsc_clean


--- Event Stage 14: siesta_end

------------------------------------------------------------------------------------------------------------------------

Memory usage is given in bytes:

Object Type          Creations   Destructions     Memory  Descendants' Mem.
Reports information only for process 0.

--- Event Stage 0: Main Stage


--- Event Stage 1: siesta_init


--- Event Stage 2: siesta_forces


--- Event Stage 3: siesta_solve


--- Event Stage 4: siesta2qetsc

              Matrix     9              0            0     0.
              Vector    19              1         1648     0.
      Vector Scatter     4              0            0     0.
           Index Set     4              4        17008     0.

--- Event Stage 5: qetsc_setup_eps

              Matrix    34             18     13129958     0.
              Vector   120             76       603576     0.
      Vector Scatter    20             11        11792     0.
           Index Set    73             66       527160     0.
          EPS Solver     2              0            0     0.
  Spectral Transform     2              0            0     0.
       Krylov Solver     2              0            0     0.
      Preconditioner     2              0            0     0.
       Basis Vectors     8              5         5280     0.
         PetscRandom     1              0            0     0.
              Region     2              0            0     0.
       Direct Solver     2              0            0     0.

--- Event Stage 6: qetsc_solve_eps

              Matrix    36             36     26381520     0.
              Vector   161            161      1262960     0.
      Vector Scatter    24             24        25728     0.
           Index Set    48             48       671520     0.
       Basis Vectors    13             13        13728     0.

--- Event Stage 7: qetsc_eigvals


--- Event Stage 8: qetsc_density

              Vector    14             13        97968     0.
      Vector Scatter   833            832       893152     0.
           Index Set  1665           1665      1385232     0.

--- Event Stage 9: Unknown


--- Event Stage 10: siesta_misc


--- Event Stage 11: siesta_move

              Matrix     0             25     20260910     0.
              Vector     0             63      1009688     0.
      Vector Scatter     0             14        14176     0.
           Index Set     0              7         5488     0.
          EPS Solver     0              2        31772     0.
  Spectral Transform     0              2         1632     0.
       Krylov Solver     0              2         2336     0.
      Preconditioner     0              2         1952     0.
       Basis Vectors     0              3         3168     0.
         PetscRandom     0              1          638     0.
              Region     0              2         1312     0.
       Direct Solver     0              2       109992     0.

--- Event Stage 12: siesta_analysis


--- Event Stage 13: qetsc_clean


--- Event Stage 14: siesta_end

              Viewer     1              0            0     0.
========================================================================================================================
Average time to get PetscTime(): 1.24437e-07
Average time for MPI_Barrier(): 3.20875e-06
Average time for zero size MPI_Send(): 1.13348e-05
#PETSc Option Table entries:
-eps_interval -2.3,0.
-eps_krylovschur_detect_zeros 0
-eps_krylovschur_partitions 64
-ioptbin 7
-ioptdensity 0
-ioptinertia 1
-ioptleft 2
-ioptwrite 1
-log_view
-mat_mumps_cntl_3 1e-12
-mat_mumps_icntl_13 1
-mat_mumps_icntl_23 600
-mat_mumps_icntl_24 1
-mat_mumps_icntl_7 5
-mat_type mpisbaij
#End of PETSc Option Table entries
Compiled with FORTRAN kernels
Compiled with full precision matrices (default)
sizeof(short) 2 sizeof(int) 4 sizeof(long) 8 sizeof(void*) 8 sizeof(PetscScalar) 8 sizeof(PetscInt) 4
Configure options: --known-has-attribute-aligned=1 --download-chaco=0 --download-cmake=0 --download-hypre=0 --download-metis=1 --download-mumps=1 --download-parmetis=1 --download-plapack=0 --download-prometheus=0 --download-ptscotch=1 --download-spai=0 --download-spooles=0 --download-superlu=0 --download-superlu_dist=0 --download-triangle=0 --known-bits-per-byte=8 --known-level1-dcache-assoc=0 --known-level1-dcache-linesize=32 --known-level1-dcache-size=32768 --known-memcmp-ok=1 --known-mpi-c-double-complex=1 --known-mpi-int64_t=1 --known-mpi-long-double=1 --known-mpi-shared-libraries=0 --known-sdot-returns-double=0 --known-sizeof-MPI_Comm=4 --known-sizeof-MPI_Fint=4 --known-sizeof-char=1 --known-sizeof-double=8 --known-sizeof-float=4 --known-sizeof-int=4 --known-sizeof-long-long=8 --known-sizeof-long=8 --known-sizeof-short=2 --known-sizeof-size_t=8 --known-sizeof-void-p=8 --known-snrm2-returns-double=0 --with-batch=1 --with-blacs-include=/soft/libraries/alcf/current/xl/SCALAPACK/ --with-blacs-lib=/soft/libraries/alcf/current/xl/SCALAPACK/lib/libscalapack.a --with-blas-lapack-lib="-L/soft/libraries/alcf/current/xl/LAPACK/lib -llapack -L/soft/libraries/alcf/current/xl/BLAS/lib -lblas" --with-cc=mpixlc_r --with-clib-autodetect=0 --with-cxx=mpixlcxx_r --with-cxxlib-autodetect=0 --with-debugging=0 --with-fc="mpixlf77_r -qnosave" --with-fortran-kernels=1 --with-fortranlib-autodetect=0 --with-is-color-value-type=short --with-scalapack-include=/soft/libraries/alcf/current/xl/SCALAPACK/ --with-scalapack-lib=/soft/libraries/alcf/current/xl/SCALAPACK/lib/libscalapack.a --with-shared-libraries=0 --with-x=0 -COPTFLAGS=" -g -O3 -qhot=level=0 -qsimd=auto -qmaxmem=-1 -qstrict -qstrict_induction" -CXXOPTFLAGS="  -g -O3 -qhot=level=0 -qsimd=auto -qmaxmem=-1 -qstrict -qstrict_induction" -FOPTFLAGS=" -g -O3 -qhot=level=0 -qsimd=auto -qmaxmem=-1 -qstrict -qstrict_induction" LIBS="-lmpichcxx-gcc -lmpichf77-gcc -L/soft/compilers/ibmcmp-feb2015/vacpp/bg/12.1/bglib64 -libmc++ -L/soft/compilers/ibmcmp-feb2015/xlf/bg/14.1/bglib64 -lxlf90_r -lxlomp_ser -lxlfmath" PETSC_ARCH=arch-xl
-----------------------------------------
Libraries compiled on Sat Aug 20 04:19:47 2016 on vestalac2 
Machine characteristics: Linux-2.6.32-573.18.1.el6.ppc64-ppc64-with-redhat-6.7-Santiago
Using PETSc directory: /home/keceli/scratch2/petsc
Using PETSc arch: arch-xl
-----------------------------------------

Using C compiler: mpixlc_r   -g -O3 -qhot=level=0 -qsimd=auto -qmaxmem=-1 -qstrict -qstrict_induction  ${COPTFLAGS} ${CFLAGS}
Using Fortran compiler: mpixlf77_r -qnosave  -g -O3 -qhot=level=0 -qsimd=auto -qmaxmem=-1 -qstrict -qstrict_induction   ${FOPTFLAGS} ${FFLAGS} 
-----------------------------------------

Using include paths: -I/home/keceli/scratch2/petsc/arch-xl/include -I/home/keceli/scratch2/petsc/include -I/home/keceli/scratch2/petsc/include -I/home/keceli/scratch2/petsc/arch-xl/include -I/bgsys/drivers/V1R2M4/ppc64/comm/include -I/bgsys/drivers/V1R2M4/ppc64/comm/lib/xl -I/bgsys/drivers/V1R2M4/ppc64 -I/bgsys/drivers/V1R2M4/ppc64/comm/sys/include -I/bgsys/drivers/V1R2M4/ppc64/spi/include -I/bgsys/drivers/V1R2M4/ppc64/spi/include/kernel/cnk
-----------------------------------------

Using C linker: mpixlc_r
Using Fortran linker: mpixlf77_r -qnosave
Using libraries: -Wl,-rpath,/home/keceli/scratch2/petsc/arch-xl/lib -L/home/keceli/scratch2/petsc/arch-xl/lib -lpetsc -Wl,-rpath,/home/keceli/scratch2/petsc/arch-xl/lib -L/home/keceli/scratch2/petsc/arch-xl/lib -lcmumps -ldmumps -lsmumps -lzmumps -lmumps_common -lpord -Wl,-rpath,/soft/libraries/alcf/current/xl/SCALAPACK/lib -L/soft/libraries/alcf/current/xl/SCALAPACK/lib -lscalapack -L/soft/libraries/alcf/current/xl/LAPACK/lib -llapack -L/soft/libraries/alcf/current/xl/BLAS/lib -lblas -lparmetis -lmetis -lptesmumps -lptscotch -lptscotcherr -lscotch -lscotcherr -lrt -lm -lpthread -ldl -lmpichcxx-gcc -lmpichf77-gcc -L/soft/compilers/ibmcmp-feb2015/vacpp/bg/12.1/bglib64 -libmc++ -L/soft/compilers/ibmcmp-feb2015/xlf/bg/14.1/bglib64 -lxlf90_r -lxlomp_ser -lxlfmath
-----------------------------------------

