s.subSiesta: Submission time = 09s17m13h
s.subSiesta: Job name = qw128_s64_n4_c16_vesta
s.subSiesta: Number of nodes = 4
s.subSiesta: Number of cores = 64
s.subSiesta: Number of cores/node = 16
s.subSiesta: Number of slices = 64
s.subSiesta: Mapping = ABCDET
09s17m13h
#QETSc options
-ioptbin 7
-ioptdensity 0
-ioptinertia 1
-ioptleft 2
-roptbuffer 0.1
-roptdiff 0.02
-writeeigs 1

#PETSc options
-mat_type mpisbaij
-log_view
#-mat_view
#-memory_view
#-mat_mumps_icntl_13 1 #turn off scaLAPACK for matrix inertia
#-mat_mumps_icntl_24 1 #null pivot row detection for matrix inertia
-mat_mumps_icntl_23 0
#-mat_mumps_icntl_28 1 # serial analysis
#-mat_mumps_icntl_28 2 #parallel analysis
#-mat_mumps_icntl_29 1 #ptscotch
#-mat_mumps_icntl_29 2 #parmetis
-mat_mumps_icntl_7 5 #metis
#-malloc_info 
#-mat_view ::ascii_info 
#-mat_getrow_uppertriangular 1
#-st_type sinvert 
#-st_ksp_type preonly 
#-st_pc_type cholesky 
#-st_pc_factor_mat_solver_package mumps 

#SLEPc options

#-eps_krylovschur_partitions 1  
-eps_interval -2.3,0.
#-eps_tol  1.e-8
-eps_krylovschur_detect_zeros 0
#-eps_purify 1
SystemName liquid_D2O_128
SystemLabel D2O_128

#UseTreeTimer .true.
DM.MixingWeight 0.3
DM.NumberPulay 3

SolutionMethod  qetsc #slepc0 for the older method
#SolutionMethod diagon
#BlockSize 23
WriteDM .false.
WriteDM.NetCDF .false.
WriteDMHS.NetCDF .false.
LongOutput .false.

#MaxSCFIterations 2
##################################################
# Do not change below this line                  #
##################################################

%block SuperCell
1 0 0
0 1 0
0 0 1
%endblock SuperCell

NumberOfAtoms 384
NumberOfSpecies 2

xc.functional GGA
xc.authors PBE 
MeshCutoff 150.0 Ry

%block ChemicalSpeciesLabel
  1   8  O
  2   1  H  
%endblock ChemicalSpeciesLabel

#%block AtomicMass
#  2   2.0
#%endblock AtomicMass

%Block PAO.Basis
O    3     -0.24233
n=2   0   2   E    23.36061     3.39721
     4.50769     2.64066
     1.00000     1.00000
n=2   1   2   E     2.78334     5.14253
     6.14996     2.59356
     1.00000     1.00000
n=3   2   1   E    63.98188     0.16104
     3.54403
     1.00000
H    2      0.46527
n=1   0   2   E    99.93138     2.59932
     4.20357     1.84463
     1.00000     1.00000
n=2   1   1   E    24.56504     2.20231
     3.52816
     1.00000
%EndBlock PAO.Basis

LatticeConstant 15.646046088993955 Ang
%block LatticeVectors   
  1.0  0.0  0.0
  0.0  1.0  0.0
  0.0  0.0  1.0
%endblock LatticeVectors   

AtomicCoordinatesFormat NotScaledCartesianAng
%block AtomicCoordinatesAndAtomicSpecies < coord128.data

Siesta Version: siesta-trunk-492
Architecture  : powerpc64-unknown-linux-gnu--Xlf
Compiler flags: mpixlf90_r -I/home/keceli/scratch2/petsc/include -I/home/keceli/scratch2/petssc/arch-xl/include -I/bgsys/drivers/V1R2M4/ppc64/comm/include -I/bgsys/drivers/V1R2M4/ppc64/comm/lib/xl -I/bgsys/drivers/V1R2M4/ppc64 -I/bgsys/drivers/V1R2M4/ppc64/comm/sys/include -I/bgsys/drivers/V1R2M4/ppc64/spi/include -I/bgsys/drivers/V1R2M4/ppc64/spi/include/kernel/cnk -I/home/keceli/scratch2/slepcfork/include -I/home/keceli/scratch2/slepcfork/arch-xl/include
PP flags      : -WF,-DMPI -WF,-DFC_HAVE_ABORT -WF,-DBSC_CELLXC -WF,-DMPI_TIMING 
PARALLEL version

* Running on   64 nodes in parallel
>> Start of run:  12-JAN-2017  13:18:07

                           ***********************       
                           *  WELCOME TO SIESTA  *       
                           ***********************       
WARNING: Siesta is reading its input from file INPUT_DEBUG

reinit: -----------------------------------------------------------------------
reinit: System Name: liquid_D2O_128
reinit: -----------------------------------------------------------------------
reinit: System Label: D2O_128                                                     
reinit: -----------------------------------------------------------------------

initatom: Reading input for the pseudopotentials and atomic orbitals ----------
Species number:   1 Atomic number:    8 Label: O
Species number:   2 Atomic number:    1 Label: H
 
Ground state valence configuration:   2s02  2p04
Reading pseudopotential information in formatted form from O.psf

Valence configuration for pseudopotential generation:
2s( 2.00) rc: 1.14
2p( 4.00) rc: 1.14
3d( 0.00) rc: 1.14
4f( 0.00) rc: 1.14
Ground state valence configuration:   1s01
Reading pseudopotential information in formatted form from H.psf

Valence configuration for pseudopotential generation:
1s( 0.60) rc: 1.25
2p( 0.00) rc: 1.25
3d( 0.00) rc: 1.25
4f( 0.00) rc: 1.25
For O, standard SIESTA heuristics set lmxkb to 3
 (one more than the basis l, including polarization orbitals).
Use PS.lmax or PS.KBprojectors blocks to override.
For H, standard SIESTA heuristics set lmxkb to 2
 (one more than the basis l, including polarization orbitals).
Use PS.lmax or PS.KBprojectors blocks to override.

<basis_specs>
===============================================================================
O                    Z=   8    Mass=  16.000        Charge=-0.24233    
Lmxo=2 Lmxkb= 3    BasisType=split      Semic=F
L=0  Nsemic=0  Cnfigmx=2
          n=1  nzeta=2  polorb=0
            splnorm:   0.15000    
               vcte:    23.361    
               rinn:    3.3972    
               qcoe:    0.0000    
               qyuk:    0.0000    
               qwid:   0.10000E-01
                rcs:    4.5077      2.6407    
            lambdas:    1.0000      1.0000    
L=1  Nsemic=0  Cnfigmx=2
          n=1  nzeta=2  polorb=0
            splnorm:   0.15000    
               vcte:    2.7833    
               rinn:    5.1425    
               qcoe:    0.0000    
               qyuk:    0.0000    
               qwid:   0.10000E-01
                rcs:    6.1500      2.5936    
            lambdas:    1.0000      1.0000    
L=2  Nsemic=0  Cnfigmx=3
          n=1  nzeta=1  polorb=0
            splnorm:   0.15000    
               vcte:    63.982    
               rinn:   0.16104    
               qcoe:    0.0000    
               qyuk:    0.0000    
               qwid:   0.10000E-01
                rcs:    3.5440    
            lambdas:    1.0000    
-------------------------------------------------------------------------------
L=0  Nkbl=1  erefs: 0.17977+309
L=1  Nkbl=1  erefs: 0.17977+309
L=2  Nkbl=1  erefs: 0.17977+309
L=3  Nkbl=1  erefs: 0.17977+309
===============================================================================
</basis_specs>

atom: Called for O                     (Z =   8)

read_vps: Pseudopotential generation method:
read_vps: ATM3      Troullier-Martins                       
Total valence charge:    6.00000

read_vps: Pseudopotential includes a core correction:
read_vps: Pseudo-core for xc-correction

xc_check: Exchange-correlation functional:
xc_check: GGA Perdew, Burke & Ernzerhof 1996
V l=0 = -2*Zval/r beyond r=  1.1278
V l=1 = -2*Zval/r beyond r=  1.1278
V l=2 = -2*Zval/r beyond r=  1.1278
V l=3 = -2*Zval/r beyond r=  1.1278
All V_l potentials equal beyond r=  1.1278
This should be close to max(r_c) in ps generation
All pots = -2*Zval/r beyond r=  1.1278

VLOCAL1: 99.0% of the norm of Vloc inside     34.126 Ry
VLOCAL1: 99.9% of the norm of Vloc inside     77.774 Ry
atom: Maximum radius for 4*pi*r*r*local-pseudopot. charge    1.37759
atom: Maximum radius for r*vlocal+2*Zval:    1.18566
GHOST: No ghost state for L =  0
GHOST: No ghost state for L =  1
GHOST: No ghost state for L =  2
GHOST: No ghost state for L =  3

KBgen: Kleinman-Bylander projectors: 
   l= 0   rc=  1.262145   el= -1.757696   Ekb=  9.253654   kbcos=  0.328369
   l= 1   rc=  1.262145   el= -0.664256   Ekb= -7.897175   kbcos= -0.393093
   l= 2   rc=  1.343567   el=  0.002031   Ekb= -1.922379   kbcos= -0.003517
   l= 3   rc=  1.394919   el=  0.003153   Ekb= -0.738278   kbcos= -0.000358

KBgen: Total number of  Kleinman-Bylander projectors:   16
atom: -------------------------------------------------------------------------

atom: SANKEY-TYPE ORBITALS:
atom: Selected multiple-zeta basis: split     

atom: basis set generated (by rescaling the valence charge)
atom: for an anion of charge  -0.2423

SPLIT: Orbitals with angular momentum L= 0

SPLIT: Basis orbitals for state 2s

   izeta = 1
                 lambda =    1.000000
                     rc =    4.574469
                 energy =   -1.754694
                kinetic =    1.490893
    potential(screened) =   -3.245588
       potential(ionic) =  -11.054474

   izeta = 2
                 rmatch =    2.639108
              splitnorm =    0.147036
                 energy =   -1.549986
                kinetic =    2.329570
    potential(screened) =   -3.879556
       potential(ionic) =  -12.328390

SPLIT: Orbitals with angular momentum L= 1

SPLIT: Basis orbitals for state 2p

   izeta = 1
                 lambda =    1.000000
                     rc =    6.174996
                 energy =   -0.657397
                kinetic =    4.283704
    potential(screened) =   -4.941101
       potential(ionic) =  -12.288569

   izeta = 2
                 rmatch =    2.639108
              splitnorm =    0.214885
                 energy =   -0.410839
                kinetic =    7.128014
    potential(screened) =   -7.538853
       potential(ionic) =  -16.113011

SPLIT: Orbitals with angular momentum L= 2

SPLIT: Basis orbitals for state 3d

   izeta = 1
                 lambda =    1.000000
                     rc =    3.562532
                 energy =    3.658838
                kinetic =    6.488135
    potential(screened) =   -2.829297
       potential(ionic) =  -10.001422
atom: Total number of Sankey-type orbitals: 13

atm_pop: Valence configuration (for local Pseudopot. screening):
 2s( 2.00)                                                            
 2p( 4.00)                                                            
 3d( 0.00)                                                            
Vna: chval, zval:    6.00000   6.00000

Vna:  Cut-off radius for the neutral-atom potential:   6.174996
comcore: Pseudo-core radius Rcore=  1.377587

atom: _________________________________________________________________________

<basis_specs>
===============================================================================
H                    Z=   1    Mass=  1.0100        Charge= 0.46527    
Lmxo=1 Lmxkb= 2    BasisType=split      Semic=F
L=0  Nsemic=0  Cnfigmx=1
          n=1  nzeta=2  polorb=0
            splnorm:   0.15000    
               vcte:    99.931    
               rinn:    2.5993    
               qcoe:    0.0000    
               qyuk:    0.0000    
               qwid:   0.10000E-01
                rcs:    4.2036      1.8446    
            lambdas:    1.0000      1.0000    
L=1  Nsemic=0  Cnfigmx=2
          n=1  nzeta=1  polorb=0
            splnorm:   0.15000    
               vcte:    24.565    
               rinn:    2.2023    
               qcoe:    0.0000    
               qyuk:    0.0000    
               qwid:   0.10000E-01
                rcs:    3.5282    
            lambdas:    1.0000    
-------------------------------------------------------------------------------
L=0  Nkbl=1  erefs: 0.17977+309
L=1  Nkbl=1  erefs: 0.17977+309
L=2  Nkbl=1  erefs: 0.17977+309
===============================================================================
</basis_specs>

atom: Called for H                     (Z =   1)

read_vps: Pseudopotential generation method:
read_vps: ATM 3.2.2 Troullier-Martins                       
Total valence charge:    0.60000

atom: Pseudopotential generated from an ionic configuration
atom: with net charge 0.40

xc_check: Exchange-correlation functional:
xc_check: GGA Perdew, Burke & Ernzerhof 1996
xc_check: WARNING: Pseudopotential generated with GGA revPBE functional
V l=0 = -2*Zval/r beyond r=  1.2343
V l=1 = -2*Zval/r beyond r=  1.2189
V l=2 = -2*Zval/r beyond r=  1.2189
All V_l potentials equal beyond r=  1.2343
This should be close to max(r_c) in ps generation
All pots = -2*Zval/r beyond r=  1.2343

VLOCAL1: 99.0% of the norm of Vloc inside     28.493 Ry
VLOCAL1: 99.9% of the norm of Vloc inside     64.935 Ry
atom: Maximum radius for 4*pi*r*r*local-pseudopot. charge    1.45251
atom: Maximum radius for r*vlocal+2*Zval:    1.21892
GHOST: No ghost state for L =  0
GHOST: No ghost state for L =  1
GHOST: No ghost state for L =  2

KBgen: Kleinman-Bylander projectors: 
   l= 0   rc=  1.364359   el= -0.835481   Ekb= -2.050473   kbcos= -0.374935
   l= 1   rc=  1.434438   el= -0.083696   Ekb= -0.439790   kbcos= -0.040392
   l= 2   rc=  1.470814   el= -0.018512   Ekb= -0.135383   kbcos= -0.004767

KBgen: Total number of  Kleinman-Bylander projectors:    9
atom: -------------------------------------------------------------------------

atom: SANKEY-TYPE ORBITALS:
atom: Selected multiple-zeta basis: split     

atom: basis set generated (by rescaling the valence charge)
atom: for a cation of charge   0.4653

SPLIT: Orbitals with angular momentum L= 0

SPLIT: Basis orbitals for state 1s

   izeta = 1
                 lambda =    1.000000
                     rc =    4.260636
                 energy =   -0.844786
                kinetic =    1.360018
    potential(screened) =   -2.204804
       potential(ionic) =   -2.290935

   izeta = 2
                 rmatch =    1.865767
              splitnorm =    0.575404
                 energy =    0.510436
                kinetic =    4.363202
    potential(screened) =   -3.852766
       potential(ionic) =   -3.849391

SPLIT: Orbitals with angular momentum L= 1

SPLIT: Basis orbitals for state 2p

   izeta = 1
                 lambda =    1.000000
                     rc =    3.576223
                 energy =    0.852340
                kinetic =    2.004908
    potential(screened) =   -1.152567
       potential(ionic) =   -1.298457
atom: Total number of Sankey-type orbitals:  5

atm_pop: Valence configuration (for local Pseudopot. screening):
 1s( 1.00)                                                            
 2p( 0.00)                                                            
Vna: chval, zval:    1.00000   1.00000

Vna:  Cut-off radius for the neutral-atom potential:   4.260636

atom: _________________________________________________________________________

prinput: Basis input ----------------------------------------------------------

PAO.BasisType split     

%block ChemicalSpeciesLabel
    1    8 O                       # Species index, atomic number, species label
    2    1 H                       # Species index, atomic number, species label
%endblock ChemicalSpeciesLabel

%block PAO.Basis                 # Define Basis set
O                     3  -0.242            # Label, l-shells, ionic net charge
 n=2   0   2                         # n, l, Nzeta 
   4.574      2.639   
   1.000      1.000   
 n=2   1   2                         # n, l, Nzeta 
   6.175      2.639   
   1.000      1.000   
 n=3   2   1                         # n, l, Nzeta 
   3.563   
   1.000   
H                     2   0.465            # Label, l-shells, ionic net charge
 n=1   0   2                         # n, l, Nzeta 
   4.261      1.866   
   1.000      1.000   
 n=2   1   1                         # n, l, Nzeta 
   3.576   
   1.000   
%endblock PAO.Basis

prinput: ----------------------------------------------------------------------

coor:   Atomic-coordinates input format  =     Cartesian coordinates
coor:                                          (in Angstroms)

siesta: Atomic coordinates (Bohr) and species
siesta:     26.49397   0.45353   4.66763  1        1
siesta:     26.96640   1.47399   3.25033  2        2
siesta:     25.77587   1.62517   5.85815  2        3
siesta:     20.33346  14.00288  21.97752  1        4
siesta:     21.22163  14.47531  20.46574  2        5
siesta:     18.59491  14.07847  21.50509  2        6
siesta:     11.07380   3.60938  13.00132  1        7
siesta:     11.41395   5.36682  12.83125  2        8
siesta:     11.58403   2.89128  11.43285  2        9
siesta:     14.09736  13.00132  25.01998  1       10
siesta:     14.15405  13.00132  26.83412  2       11
siesta:     13.53044  11.33836  24.56645  2       12
siesta:     17.17762   8.63605  20.03110  1       13
siesta:     16.83747   9.24076  18.34925  2       14
siesta:     18.95396   8.86282  20.23897  2       15
siesta:     22.75231   1.79524   9.37305  1       16
siesta:     21.27832   2.30547   8.48487  2       17
siesta:     23.45151   3.32592  10.03445  2       18
siesta:     27.17427  25.60580  26.85302  1       19
siesta:     28.61046  25.54911  27.94906  2       20
siesta:     27.57112  24.43417  25.53021  2       21
siesta:     24.09402  25.03888   4.02512  1       22
siesta:     23.67828  24.96329   2.26767  2       23
siesta:     24.75542  26.70184   4.28968  2       24
siesta:     28.81833  16.93195   4.57314  1       25
siesta:     29.17738  18.65160   4.13850  2       26
siesta:     29.02620  16.00599   3.04246  2       27
siesta:      3.17474   7.14317  26.24831  1       28
siesta:      1.79524   7.97465  25.45462  2       29
siesta:      4.62983   8.12583  25.81367  2       30
siesta:      1.56847   2.39995  27.68450  1       31
siesta:      0.15118   1.90862  26.68294  2       32
siesta:      2.22988   3.85504  26.85302  2       33
siesta:     21.97752   5.87705  29.00731  1       34
siesta:     21.33502   4.25189  28.51598  2       35
siesta:     21.18384   7.02978  27.87347  2       36
siesta:      2.81569  25.05778  28.47818  1       37
siesta:      3.53379  25.98374  29.85768  2       38
siesta:      3.38261  23.35702  28.74275  2       39
siesta:      2.05980   4.45976  19.10514  1       40
siesta:      0.77479   4.66763  17.83902  2       41
siesta:      3.36371   5.61249  18.61381  2       42
siesta:      9.12738  25.19006  29.38525  1       43
siesta:     10.37460  24.79322  28.13803  2       44
siesta:      7.54001  24.81211  28.59157  2       45
siesta:     20.99487   3.64717  16.91306  1       46
siesta:     19.33191   3.02356  17.30990  2       47
siesta:     21.78855   3.83615  18.51932  2       48
siesta:      2.04091  15.04223  21.58068  1       49
siesta:      1.11494  13.51155  21.42950  2       50
siesta:      2.47554  15.13671  23.33813  2       51
siesta:     16.47842   9.58092   2.28657  1       52
siesta:     17.95241   9.54312   3.34482  2       53
siesta:     16.74298  10.97931   1.19053  2       54
siesta:     25.90816   8.05024   4.72432  1       55
siesta:     26.00264   7.02978   6.21720  2       56
siesta:     26.55066   6.99199   3.40151  2       57
siesta:     10.56357  15.04223  21.08935  1       58
siesta:     12.32102  14.72097  21.37281  2       59
siesta:      9.80768  13.41706  21.08935  2       60
siesta:      7.97465  10.88483  12.77455  1       61
siesta:      7.02978   9.93996  11.56513  2       62
siesta:      7.36993  10.33681  14.38082  2       63
siesta:      2.30547  13.43596   7.38883  1       64
siesta:      1.58737  14.41862   6.04713  2       65
siesta:      2.83459  14.64538   8.61715  2       66
siesta:     12.66117   3.38261   7.67229  1       67
siesta:     12.30212   2.05980   6.50066  2       68
siesta:     12.49109   4.91329   6.70853  2       69
siesta:     26.55066   6.27389   9.44863  1       70
siesta:     25.43572   7.59670   9.95886  2       71
siesta:     28.19473   6.99199   9.59981  2       72
siesta:      7.89906   4.51645   3.28812  1       73
siesta:      8.86282   3.19364   4.06291  2       74
siesta:      6.29279   3.74166   2.91018  2       75
siesta:     28.85613  22.79011   3.74166  1       76
siesta:     27.43883  23.79166   4.25189  2       77
siesta:     30.29232  23.82946   4.08181  2       78
siesta:     15.38238  23.18695   9.52422  1       79
siesta:     16.47842  22.63893  10.84703  2       80
siesta:     16.47842  23.82946   8.23921  2       81
siesta:     23.64048  15.23120  17.51777  1       82
siesta:     24.35858  13.64383  17.08313  2       83
siesta:     24.45307  16.42173  16.42173  2       84
siesta:     23.45151   9.97776  10.90372  1       85
siesta:     21.73186   9.46753  11.13049  2       86
siesta:     23.39482  11.77300  11.01711  2       87
siesta:     11.01711   5.66918  18.25476  1       88
siesta:     11.41395   5.40462  16.49732  2       89
siesta:     11.09270   4.02512  18.97286  2       90
siesta:     22.35547  25.05778  19.72875  1       91
siesta:     21.20274  24.71763  21.08935  2       92
siesta:     23.43261  23.62159  19.67206  2       93
siesta:     21.76965  16.79967  27.74119  1       94
siesta:     21.46730  17.95241  26.38059  2       95
siesta:     22.80900  17.72564  28.89392  2       96
siesta:     21.59958  19.29411  23.22474  1       97
siesta:     20.42795  18.14138  22.44996  2       98
siesta:     23.22474  18.50043  22.99798  2       99
siesta:     20.22008   7.36993   4.81880  1      100
siesta:     21.71296   8.22031   5.40462  2      101
siesta:     20.71141   6.61404   3.25033  2      102
siesta:     16.42173   1.88973   2.19208  1      103
siesta:     15.79812   3.17474   1.07714  2      104
siesta:     14.94774   1.09604   2.85349  2      105
siesta:      8.46598  10.63916   3.53379  1      106
siesta:      9.24076  10.97931   1.94642  2      107
siesta:      8.84392  12.09425   4.55424  2      108
siesta:     17.10203  15.02333  29.66871  1      109
siesta:     15.89260  16.04378  28.76164  2      110
siesta:     18.70830  15.53355  29.02620  2      111
siesta:      5.78256   4.19519  12.35881  1      112
siesta:      4.89439   2.60782  12.32102  2      113
siesta:      7.48332   3.74166  12.73676  2      114
siesta:     14.04067  22.35547  16.95085  1      115
siesta:     13.34147  20.74920  16.49732  2      116
siesta:     14.17295  23.24364  15.38238  2      117
siesta:      8.42818  16.00599  26.19161  1      118
siesta:      6.76522  15.32568  26.45618  2      119
siesta:      9.01400  15.15561  24.69873  2      120
siesta:     -0.20787  22.35547  23.26254  1      121
siesta:      1.51178  22.52554  22.77121  2      122
siesta:     -1.02045  21.63737  21.82635  2      123
siesta:      1.49288   8.88172   9.33525  1      124
siesta:      1.92752  10.54468   8.76833  2      125
siesta:      3.00467   7.91796   9.16518  2      126
siesta:      4.81880  22.56334   8.10693  1      127
siesta:      4.83770  20.78700   7.78567  2      128
siesta:      5.78256  23.26254   6.74632  2      129
siesta:     16.72408   3.28812  20.10669  1      130
siesta:     16.62960   5.08337  20.06890  2      131
siesta:     15.02333   2.72121  19.86103  2      132
siesta:     29.91438  14.09736  14.75877  1      133
siesta:     29.08290  12.54779  15.13671  2      134
siesta:     28.61046  15.34458  14.85325  2      135
siesta:      8.18252  27.43883  18.78389  1      136
siesta:      6.40617  27.60891  19.02955  2      137
siesta:      8.42818  25.71918  18.31145  2      138
siesta:     27.77899   6.23610  21.73186  1      139
siesta:     29.21518   5.57469  20.86258  2      140
siesta:     27.11758   4.83770  22.65783  2      141
siesta:     29.68761  13.09581   1.07714  1      142
siesta:     28.15693  12.39661   0.39684  2      143
siesta:     30.65137  11.65961   1.58737  2      144
siesta:     19.40750  24.11291  24.01843  1      145
siesta:     17.87682  24.58535  23.16805  2      146
siesta:     19.27521  22.33657  24.22630  2      147
siesta:     23.75387  12.45330   3.68497  1      148
siesta:     23.79166  13.81390   4.87550  2      149
siesta:     24.67983  11.13049   4.47865  2      150
siesta:     22.29878  21.18384   9.01400  1      151
siesta:     20.93817  20.82479  10.16673  2      152
siesta:     21.97752  22.88459   8.46598  2      153
siesta:      6.85971  10.67696  25.98374  1      154
siesta:      7.23765  10.31791  24.26409  2      155
siesta:      8.06913   9.71320  26.92861  2      156
siesta:     13.13360  18.44373  28.89392  1      157
siesta:     11.50844  18.34925  28.11914  2      158
siesta:     12.98242  19.76654  30.12225  2      159
siesta:     26.19161   2.75900  25.09557  1      160
siesta:     24.45307   3.23143  24.90660  2      161
siesta:     26.49397   1.62517  23.71607  2      162
siesta:      8.46598  22.33657   4.53534  1      163
siesta:      7.86126  20.80589   3.76056  2      164
siesta:      8.22031  23.60269   3.26923  2      165
siesta:     25.37903  10.71475  16.27055  1      166
siesta:     24.45307   9.67540  17.42328  2      167
siesta:     24.81211  10.18563  14.62649  2      168
siesta:     20.50354   0.94486  23.43261  1      169
siesta:     19.97441   1.02045  25.15226  2      170
siesta:     19.10514   1.58737  22.48775  2      171
siesta:     14.02177   7.88016  24.11291  1      172
siesta:     15.04223   8.50377  22.75231  2      173
siesta:     13.36037   6.31169  23.50820  2      174
siesta:     11.71631  17.83902  16.93195  1      175
siesta:     10.96042  17.36659  18.51932  2      176
siesta:     10.60137  17.15872  15.68473  2      177
siesta:     17.65005   4.08181   8.08803  1      178
siesta:     17.97130   5.32903   6.80302  2      179
siesta:     15.85481   4.08181   8.25811  2      180
siesta:      6.51956  17.83902   2.72121  1      181
siesta:      5.65028  16.28945   3.04246  2      182
siesta:      5.97154  18.33035   1.07714  2      183
siesta:     18.57602  20.69251  13.19029  1      184
siesta:     18.25476  19.50198  14.51310  2      185
siesta:     18.57602  22.29878  14.02177  2      186
siesta:      3.42041  26.90971   4.25189  1      187
siesta:      4.38417  28.30811   4.89439  2      188
siesta:      2.04091  26.73964   5.40462  2      189
siesta:     29.19628  28.76164  14.77766  1      190
siesta:     28.13803  27.34435  14.49421  2      191
siesta:     30.21673  28.30811  16.19496  2      192
siesta:     12.73676  26.24831  13.19029  1      193
siesta:     13.60603  27.83568  13.11470  2      194
siesta:     13.03912  25.49242  11.56513  2      195
siesta:     26.26720  24.86881  12.83125  1      196
siesta:     24.62314  24.47196  12.18874  2      197
siesta:     27.36325  23.71607  11.96197  2      198
siesta:     11.24387  13.56824  29.70651  1      199
siesta:     12.50999  14.85325  29.91438  2      200
siesta:     10.05335  14.30523  28.55377  2      201
siesta:     22.58224  24.33968  28.49708  1      202
siesta:     21.37281  24.35858  27.13648  2      203
siesta:     24.15071  24.77432  27.70340  2      204
siesta:     11.82969   0.90707  20.59802  1      205
siesta:     11.30057   0.96376  22.33657  2      206
siesta:     10.73365  -0.32125  19.82323  2      207
siesta:      2.66451   4.34637   3.57158  1      208
siesta:      2.34326   6.10382   3.72276  2      209
siesta:      2.38106   3.96843   1.83304  2      210
siesta:     28.96951  18.34925  27.59001  1      211
siesta:     28.04355  18.51932  26.04044  2      212
siesta:     27.76009  18.67050  28.87503  2      213
siesta:      7.76678  25.64359  11.73520  1      214
siesta:      9.16518  26.32390  12.64227  2      215
siesta:      8.16362  23.88615  11.54623  2      216
siesta:     21.33502  26.60735  10.48798  1      217
siesta:     21.37281  26.66405  12.28322  2      218
siesta:     22.22319  28.08134   9.95886  2      219
siesta:      4.83770  10.43129  17.66895  1      220
siesta:      4.30858  12.15094  17.70674  2      221
siesta:      3.45820   9.54312  16.89416  2      222
siesta:      6.84081   7.82347   8.69274  1      223
siesta:      6.55735   6.33059   9.65650  2      224
siesta:      7.40773   7.21876   7.08648  2      225
siesta:     17.04534  10.56357  15.36348  1      226
siesta:     18.46263   9.69430  14.64538  2      227
siesta:     15.62804   9.99666  14.39972  2      228
siesta:     26.43728  28.11914  21.73186  1      229
siesta:     26.39948  27.74119  23.48931  2      230
siesta:     24.92550  27.36325  21.07045  2      231
siesta:     20.40905   1.05825  28.81833  1      232
siesta:     19.19963   1.53068  30.08445  2      233
siesta:     20.54133  -0.73699  28.96951  2      234
siesta:      9.78879  14.73987   6.16051  1      235
siesta:      9.46753  16.02488   4.93219  2      236
siesta:     11.56513  14.89105   6.50066  2      237
siesta:     24.49086  19.29411   1.28501  1      238
siesta:     23.92394  18.42484   2.77790  2      239
siesta:     24.58535  21.03266   1.79524  2      240
siesta:     24.37748  16.51621   7.16206  1      241
siesta:     26.07823  16.74298   6.55735  2      242
siesta:     23.71607  18.19807   7.31324  2      243
siesta:     15.15561  25.53021  21.63737  1      244
siesta:     14.75877  27.28766  21.35391  2      245
siesta:     15.21230  24.81211  19.97441  2      246
siesta:      3.26923  14.89105  26.55066  1      247
siesta:      2.68341  13.19029  26.58846  2      248
siesta:      2.11649  15.79812  27.57112  2      249
siesta:      0.86927   7.99354  15.09892  1      250
siesta:      1.20943   8.73054  13.47375  2      251
siesta:     -0.83148   7.44552  15.00443  2      252
siesta:      9.03289   6.42507  28.25142  1      253
siesta:      8.29590   5.99043  29.83879  2      254
siesta:     10.80924   6.21720  28.49708  2      255
siesta:     29.17738  11.18718  24.15071  1      256
siesta:     28.47818   9.82658  23.18695  2      257
siesta:     27.98686  11.47064  25.47352  2      258
siesta:     10.88483  26.15382   7.69119  1      259
siesta:     10.60137  24.39637   7.40773  2      260
siesta:      9.88327  26.53177   9.16518  2      261
siesta:     19.74765   9.88327  25.88926  1      262
siesta:     19.06734  11.31946  25.01998  2      263
siesta:     21.03266  10.56357  26.94751  2      264
siesta:      4.00622  20.01221  28.44039  1      265
siesta:      4.96998  18.99176  27.28766  2      266
siesta:      2.28657  19.70985  27.98686  2      267
siesta:     18.40594  24.47196   5.36682  1      268
siesta:     20.08780  23.82946   5.21565  2      269
siesta:     18.10358  25.32234   3.77945  2      270
siesta:     26.62625  18.10358  14.28634  1      271
siesta:     27.81678  19.29411  13.60603  2      272
siesta:     25.62470  17.61225  12.86904  2      273
siesta:      5.17785  28.87503  24.90660  1      274
siesta:      3.93063  28.28921  23.73497  2      275
siesta:      4.21409  29.61202  26.24831  2      276
siesta:      2.94797  20.65471  17.06423  1      277
siesta:      3.91173  21.33502  18.42484  2      278
siesta:      3.55269  18.95396  16.87526  2      279
siesta:      0.88817  21.37281  12.16984  1      280
siesta:      1.90862  22.29878  10.99821  2      281
siesta:      1.70075  21.61848  13.75721  2      282
siesta:      3.72276  17.61225  10.11004  1      283
siesta:      5.17785  17.36659  11.16829  2      284
siesta:      2.41885  18.14138  11.22498  2      285
siesta:      9.42974   2.58893  24.71763  1      286
siesta:      8.08803   1.37950  24.75542  2      287
siesta:      8.88172   3.89284  25.85146  2      288
siesta:      8.86282  20.69251  11.11159  1      289
siesta:      7.69119  20.69251   9.75099  2      290
siesta:      8.65495  19.04845  11.86748  2      291
siesta:     12.32102   8.03134   5.51800  1      292
siesta:     13.51155   8.27700   4.17630  2      293
siesta:     10.84703   8.91951   4.95108  2      294
siesta:      9.01400  20.67361  22.14760  1      295
siesta:      8.65495  21.80745  20.78700  2      296
siesta:      9.16518  19.04845  21.35391  2      297
siesta:     16.93195   0.52912  12.71786  1      298
siesta:     16.70519   2.02201  11.71631  2      299
siesta:     18.00910  -0.52912  11.71631  2      300
siesta:      9.27856   9.59981  20.93817  1      301
siesta:      7.55891   9.84548  20.40905  2      302
siesta:      9.76989   8.05024  20.12559  2      303
siesta:      3.15584   9.58092   3.38261  1      304
siesta:      2.66451   9.90217   5.10226  2      305
siesta:      4.85660  10.20453   3.26923  2      306
siesta:     13.85170  21.58068   4.04402  1      307
siesta:     15.25010  22.33657   4.87550  2      308
siesta:     12.39661  22.39326   4.76211  2      309
siesta:     26.02154  17.00754  21.80745  1      310
siesta:     27.62781  16.21386  22.09091  2      311
siesta:     25.41683  16.27055  20.27677  2      312
siesta:     26.58846  21.86414  18.25476  1      313
siesta:     26.70184  20.29567  17.36659  2      314
siesta:     26.55066  23.11136  16.95085  2      315
siesta:      2.21098  28.74275  20.10669  1      316
siesta:      0.43464  28.55377  20.44684  2      317
siesta:      2.49444  30.51909  20.23897  2      318
siesta:     11.73520  23.28144  25.60580  1      319
siesta:     10.75255  22.07201  24.67983  2      320
siesta:     12.88794  23.98063  24.37748  2      321
siesta:     25.22785  11.58403  28.17583  1      322
siesta:     24.62314  13.26588  28.00575  2      323
siesta:     24.45307  10.96042  29.66871  2      324
siesta:     27.00420   3.77945  16.32724  1      325
siesta:     27.98686   2.72121  15.25010  2      326
siesta:     25.32234   3.70386  15.64694  2      327
siesta:     14.30523   6.25500  28.83723  1      328
siesta:     15.19340   7.52111  29.76320  2      329
siesta:     14.15405   6.93530  27.17427  2      330
siesta:      4.93219  24.26409  21.05156  1      331
siesta:      3.85504  25.70029  20.76810  2      332
siesta:      5.95264  24.73652  22.44996  2      333
siesta:     17.72564  18.08469   4.06291  1      334
siesta:     17.53667  16.98864   2.62672  2      335
siesta:     16.45952  19.35080   3.83615  2      336
siesta:     18.06579  14.68318  12.85014  1      337
siesta:     17.47997  13.43596  14.02177  2      338
siesta:     17.02644  14.45641  11.37616  2      339
siesta:      5.61249   1.24722   6.87861  1      340
siesta:      4.89439   2.81569   6.31169  2      341
siesta:      4.72432   0.85038   8.39039  2      342
siesta:      4.34637  15.85481  16.96975  1      343
siesta:      3.70386  15.83591  18.67050  2      344
siesta:      3.04246  15.13671  15.96819  2      345
siesta:     12.45330   8.97620  12.33992  1      346
siesta:     10.84703   9.73209  12.66117  2      347
siesta:     12.69896   9.18407  10.56357  2      348
siesta:     22.37437   9.14628  19.86103  1      349
siesta:     22.43106  10.37460  21.20274  2      350
siesta:     23.43261   7.80457  20.42795  2      351
siesta:     14.62649  15.96819   8.40928  1      352
siesta:     13.09581  16.79967   8.90061  2      353
siesta:     15.38238  17.08313   7.21876  2      354
siesta:      0.01890  27.23096   8.12583  1      355
siesta:      0.94486  28.17583   9.35415  2      356
siesta:     -0.96376  28.47818   7.23765  2      357
siesta:      8.82502  22.63893  17.02644  1      358
siesta:      8.48487  22.97908  15.28789  2      359
siesta:     10.60137  22.86570  17.19651  2      360
siesta:     15.81701  10.62027   8.01244  1      361
siesta:     14.58869   9.95886   6.85971  2      362
siesta:     15.81701  12.39661   7.72898  2      363
siesta:     11.50844  29.47974   4.15740  1      364
siesta:     10.97931  28.78054   2.57003  2      365
siesta:     11.01711  28.25142   5.38572  2      366
siesta:     19.38860  25.56800  15.51466  1      367
siesta:     20.18228  25.39793  17.12093  2      368
siesta:     19.12404  27.34435  15.32568  2      369
siesta:     23.26254  15.04223  11.75410  1      370
siesta:     21.56178  15.17451  12.32102  2      371
siesta:     23.16805  15.30679   9.95886  2      372
siesta:     19.10514   7.84237  10.99821  1      373
siesta:     18.67050   6.40617   9.97776  2      374
siesta:     18.16028   9.20297  10.28011  2      375
siesta:     26.62625   4.04402   1.28501  1      376
siesta:     24.92550   4.08181   0.66140  2      377
siesta:     27.60891   3.32592  -0.05669  2      378
siesta:      3.32592  29.34746  11.67851  1      379
siesta:      4.64873  28.19473  12.15094  2      380
siesta:      1.88973  28.81833  12.64227  2      381
siesta:      8.10693  16.10047  13.19029  1      382
siesta:      6.97309  16.51621  14.53200  2      383
siesta:      8.06913  14.28634  13.13360  2      384

siesta: System type = bulk      

initatomlists: Number of atoms, orbitals, and projectors:    384  2944  4352

siesta: ******************** Simulation parameters ****************************
siesta:
siesta: The following are some of the parameters of the simulation.
siesta: A complete list of the parameters used, including default values,
siesta: can be found in file out.fdf
siesta:
redata: Non-Collinear-spin run           =     F
redata: SpinPolarized (Up/Down) run      =     F
redata: Number of spin components        =     1
redata: Long output                      =     F
redata: Number of Atomic Species         =        2
redata: Charge density info will appear in .RHO file
redata: Write Mulliken Pop.              =     NO
redata: Mesh Cutoff                      =   150.0000  Ry
redata: Net charge of the system         =     0.0000 |e|
redata: Min. number of SCF Iter          =        0
redata: Max. number of SCF Iter          =       50
redata: Mix DM or H after convergence    =     F
redata: Recompute H after scf cycle      =     F
redata: Performing Pulay mixing using    =     3 iterations
redata: Mix DM in first SCF step ?       =     F
redata: Write Pulay info on disk?        =     F
redata: Discard 1st Pulay DM after  kick =     F
redata: New DM Mixing Weight             =     0.3000
redata: New DM Occupancy tolerance       = 0.000000000001
redata: No kicks to SCF
redata: DM Mixing Weight for Kicks       =     0.5000
redata: DM Tolerance for SCF             =     0.000100
redata: Require (free) Energy convergence in SCF =     F
redata: DM (free)Energy tolerance for SCF =     0.000010 eV
redata: Require Harris convergence for SCF =     F
redata: DM Harris energy tolerance for SCF =     0.000010 eV
redata: Using Saved Data (generic)   =     F
redata: Use continuation files for DM    =     F
redata: Neglect nonoverlap interactions  =     F
redata: Method of Calculation            =     QETSc
redata: Fix the spin of the system       =     F
redata: Dynamics option                  =     Single-point calculation
redata: ***********************************************************************
Total number of electrons:  1024.000000
Total ionic charge:  1024.000000

* ProcessorY, Blocksize:    8  46


* Orbital distribution balance (max,min):    46    46

 Kpoints in:  1 . Kpoints trimmed:  1

siesta: k-grid: Number of k-points =     1
siesta: k-grid: Cutoff (effective) =     7.823 Ang
siesta: k-grid: Supercell and displacements
siesta: k-grid:    1   0   0      0.000
siesta: k-grid:    0   1   0      0.000
siesta: k-grid:    0   0   1      0.000

                     ====================================
                        Single-point calculation
                     ====================================

outcell: Unit cell vectors (Ang):
       15.646046    0.000000    0.000000
        0.000000   15.646046    0.000000
        0.000000    0.000000   15.646046

outcell: Cell vector modules (Ang)   :   15.646046   15.646046   15.646046
outcell: Cell angles (23,13,12) (deg):     90.0000     90.0000     90.0000
outcell: Cell volume (Ang**3)        :   3830.1327
New_DM. Step:     1
Initializing Density Matrix...
New grid distribution:   1
           1       1:   60    1:    8    1:    8
           2       1:   60    1:    8    9:   16
           3       1:   60    1:    8   17:   24
           4       1:   60    1:    8   25:   32
           5       1:   60    1:    8   33:   39
           6       1:   60    1:    8   40:   46
           7       1:   60    1:    8   47:   53
           8       1:   60    1:    8   54:   60
           9       1:   60    9:   16    1:    8
          10       1:   60    9:   16    9:   16
          11       1:   60    9:   16   17:   24
          12       1:   60    9:   16   25:   32
          13       1:   60    9:   16   33:   39
          14       1:   60    9:   16   40:   46
          15       1:   60    9:   16   47:   53
          16       1:   60    9:   16   54:   60
          17       1:   60   17:   24    1:    8
          18       1:   60   17:   24    9:   16
          19       1:   60   17:   24   17:   24
          20       1:   60   17:   24   25:   32
          21       1:   60   17:   24   33:   39
          22       1:   60   17:   24   40:   46
          23       1:   60   17:   24   47:   53
          24       1:   60   17:   24   54:   60
          25       1:   60   25:   32    1:    8
          26       1:   60   25:   32    9:   16
          27       1:   60   25:   32   17:   24
          28       1:   60   25:   32   25:   32
          29       1:   60   25:   32   33:   39
          30       1:   60   25:   32   40:   46
          31       1:   60   25:   32   47:   53
          32       1:   60   25:   32   54:   60
          33       1:   60   33:   39    1:    8
          34       1:   60   33:   39    9:   16
          35       1:   60   33:   39   17:   24
          36       1:   60   33:   39   25:   32
          37       1:   60   33:   39   33:   39
          38       1:   60   33:   39   40:   46
          39       1:   60   33:   39   47:   53
          40       1:   60   33:   39   54:   60
          41       1:   60   40:   46    1:    8
          42       1:   60   40:   46    9:   16
          43       1:   60   40:   46   17:   24
          44       1:   60   40:   46   25:   32
          45       1:   60   40:   46   33:   39
          46       1:   60   40:   46   40:   46
          47       1:   60   40:   46   47:   53
          48       1:   60   40:   46   54:   60
          49       1:   60   47:   53    1:    8
          50       1:   60   47:   53    9:   16
          51       1:   60   47:   53   17:   24
          52       1:   60   47:   53   25:   32
          53       1:   60   47:   53   33:   39
          54       1:   60   47:   53   40:   46
          55       1:   60   47:   53   47:   53
          56       1:   60   47:   53   54:   60
          57       1:   60   54:   60    1:    8
          58       1:   60   54:   60    9:   16
          59       1:   60   54:   60   17:   24
          60       1:   60   54:   60   25:   32
          61       1:   60   54:   60   33:   39
          62       1:   60   54:   60   40:   46
          63       1:   60   54:   60   47:   53
          64       1:   60   54:   60   54:   60

InitMesh: MESH =   120 x   120 x   120 =     1728000
InitMesh: (bp) =    60 x    60 x    60 =      216000
InitMesh: Mesh cutoff (required, used) =   150.000   162.575 Ry
ExtMesh (bp) on 0 =   112 x    60 x    60 =      403200
New grid distribution:   2
           1      46:   60    1:   15    1:   14
           2      30:   42    1:   16   15:   28
           3       1:   15    1:   15   14:   28
           4      31:   46    1:   17   29:   44
           5       1:   16    1:   16   29:   46
           6      44:   60   17:   29   15:   28
           7       1:   15    1:   17   47:   60
           8      16:   29    1:   15    1:   13
           9      30:   45    1:   15    1:   14
          10       1:   16   16:   29    1:   13
          11      43:   60    1:   16   15:   28
          12      16:   29    1:   15   14:   28
          13      48:   60   44:   60    1:   14
          14      17:   30   18:   30   47:   60
          15      31:   47    1:   16   45:   60
          16      16:   30    1:   17   47:   60
          17      17:   30    1:   16   29:   46
          18      48:   60    1:   16   45:   60
          19       1:   15   16:   29   14:   28
          20      47:   60   18:   30   29:   44
          21      14:   30   17:   30   29:   46
          22       1:   13   17:   30   29:   46
          23      46:   60   16:   29    1:   14
          24       1:   16   18:   30   47:   60
          25      47:   60    1:   17   29:   44
          26      30:   45   16:   29    1:   14
          27      14:   28   30:   46   16:   28
          28      30:   43   17:   29   15:   28
          29      31:   46   18:   30   29:   44
          30      16:   29   16:   29   14:   28
          31      44:   60   17:   30   45:   60
          32      31:   43   17:   30   45:   60
          33      29:   46   30:   43    1:   14
          34      16:   28   30:   45    1:   15
          35      29:   45   30:   45   15:   28
          36       1:   13   30:   46   16:   28
          37      28:   50   31:   46   29:   44
          38      51:   60   31:   46   29:   44
          39      14:   27   31:   44   44:   60
          40      47:   60   31:   44   45:   60
          41       1:   15   30:   45    1:   15
          42      47:   60   30:   43    1:   14
          43      46:   60   30:   45   15:   28
          44      29:   43   46:   60   15:   28
          45       1:   13   31:   44   29:   43
          46       1:   13   31:   44   44:   60
          47      28:   46   31:   44   45:   60
          48      48:   60   45:   60   45:   60
          49      29:   47   44:   60    1:   14
          50       1:   14   46:   60    1:   15
          51      44:   60   46:   60   15:   28
          52      16:   27   45:   60   29:   43
          53       1:   15   45:   60   29:   43
          54      14:   27   31:   44   29:   43
          55      28:   47   45:   60   45:   60
          56      16:   28   47:   60   16:   28
          57       1:   12   45:   60   44:   60
          58      15:   28   46:   60    1:   15
          59       1:   15   47:   60   16:   28
          60      44:   60   47:   60   29:   44
          61      28:   43   47:   60   29:   44
          62       1:   15    1:   15    1:   13
          63      13:   27   45:   60   44:   60
          64      17:   29   16:   29    1:   13
New grid distribution:   3
           1      31:   45   16:   30   46:   60
           2      31:   45   46:   60   46:   60
           3      31:   45   16:   30    1:   15
           4      31:   45   46:   60    1:   15
           5      31:   45    1:   15   31:   45
           6      46:   60   46:   60   46:   60
           7      46:   60   16:   30    1:   15
           8      46:   60   46:   60    1:   15
           9      46:   60   16:   30   46:   60
          10      46:   60   31:   45   46:   60
          11      31:   45    1:   15    1:   15
          12      31:   45   31:   45    1:   15
          13      46:   60    1:   15   31:   45
          14       1:   15   46:   60   46:   60
          15      46:   60    1:   15    1:   15
          16      46:   60   31:   45    1:   15
          17      31:   45    1:   15   46:   60
          18      16:   30   46:   60   46:   60
          19      31:   45   16:   30   16:   30
          20       1:   15   46:   60    1:   15
          21      31:   45   16:   30   31:   45
          22       1:   15   31:   45   46:   60
          23      31:   45    1:   15   16:   30
          24      16:   30   46:   60    1:   15
          25      46:   60    1:   15   46:   60
          26      16:   30   31:   45   46:   60
          27      46:   60   16:   30   16:   30
          28       1:   15   31:   45    1:   15
          29      46:   60   16:   30   31:   45
          30      46:   60    1:   15   16:   30
          31      31:   45   31:   45   46:   60
          32      16:   30   31:   45    1:   15
          33       1:   15   16:   30   31:   45
          34       1:   15   16:   30    1:   15
          35      31:   45   31:   45   16:   30
          36       1:   15   31:   45   31:   45
          37      16:   30   16:   30   31:   45
          38      31:   45   31:   45   31:   45
          39      16:   30   16:   30    1:   15
          40       1:   15   46:   60   16:   30
          41       1:   15    1:   15   31:   45
          42       1:   15    1:   15    1:   15
          43      46:   60   31:   45   16:   30
          44      16:   30   31:   45   31:   45
          45      16:   30    1:   15   31:   45
          46      46:   60   31:   45   31:   45
          47      16:   30    1:   15    1:   15
          48      16:   30   46:   60   16:   30
          49       1:   15   16:   30   46:   60
          50       1:   15   16:   30   16:   30
          51      31:   45   46:   60   16:   30
          52       1:   15   46:   60   31:   45
          53      16:   30   16:   30   46:   60
          54      31:   45   46:   60   31:   45
          55      16:   30   16:   30   16:   30
          56       1:   15   31:   45   16:   30
          57       1:   15    1:   15   46:   60
          58       1:   15    1:   15   16:   30
          59      46:   60   46:   60   16:   30
          60      16:   30   46:   60   31:   45
          61      16:   30    1:   15   46:   60
          62      46:   60   46:   60   31:   45
          63      16:   30    1:   15   16:   30
          64      16:   30   31:   45   16:   30
Setting up quadratic distribution...
ExtMesh (bp) on 0 =    67 x    67 x    66 =      296274
PhiOnMesh: Number of (b)points on node 0 =                 3150
PhiOnMesh: nlist on node 0 =               118532
QETSC: Last update           = Dec 15, 2016
QETSC: Number of ranks       =          64
QETSC: Number of slices      =          64
QETSC: Number of ranks/slice =           1
QETSC: Number of evals/slice =   8.00
QETSC: Number of req. evals  =         512
QETSC: Number of rows (all)  =        2944
QETSC: Number of rows (max)  =          46
QETSC: Number of rows (min)  =          46
QETSC: Density option        =           0
QETSC: Bin type given        =           7
QETSC: Inertia type          =           1
QETSC: Infinity type         =           2
QETSC: Write option          =           1
QETSC: Bin buffer given      =   0.10
QETSC: Diff thresh           =   0.02
QETSC: Number of nonzeros    =      808032
QETSC: Nonzero % (all)       =   9.32
QETSC: Nonzero % (max)       =  10.53
QETSC: Nonzero % (min)       =   8.26
 QETSC: Shifts, inertias         =
      -INF     0
    -2.300     0
    -2.263    54
    -2.227   128
    -2.190   128
    -2.154   128
    -2.117   128
    -2.081   128
    -2.044   128
    -2.008   128
    -1.971   128
    -1.935   128
    -1.898   128
    -1.862   128
    -1.825   128
    -1.789   128
    -1.752   128
    -1.716   128
    -1.679   128
    -1.643   128
    -1.606   128
    -1.570   128
    -1.533   128
    -1.497   128
    -1.460   128
    -1.424   128
    -1.387   128
    -1.351   128
    -1.314   166
    -1.278   247
    -1.241   256
    -1.205   256
    -1.168   260
    -1.132   302
    -1.095   354
    -1.059   384
    -1.022   384
    -0.986   417
    -0.949   512
    -0.913   512
    -0.876   512
    -0.840   512
    -0.803   512
    -0.767   512
    -0.730   512
    -0.694   512
    -0.657   512
    -0.621   512
    -0.584   512
    -0.548   512
    -0.511   512
    -0.475   512
    -0.438   512
    -0.402   512
    -0.365   512
    -0.329   512
    -0.292   512
    -0.256   512
    -0.219   512
    -0.183   512
    -0.146   512
    -0.110   512
    -0.073   512
    -0.037   512
     0.000   512
 QETSc: Custers,iter,crange,npcmax,trial 1 0.587576148632147112E-02 16 20
-2.2945914168136388E+00
-2.2885067607289828E+00
-2.2824221046443269E+00
-2.2763374485596706E+00
-2.2702527924750147E+00
-2.2641681363903587E+00
-2.2580652080652079E+00
-2.2521450021450020E+00
-2.2462247962247961E+00
-2.2403045903045902E+00
-2.2343843843843842E+00
-2.2284641784641783E+00
-2.2274774774774770E+00
-1.3450292397660817E+00
-1.3383040935672514E+00
-1.3315789473684210E+00
-1.3248538011695905E+00
-1.3181286549707603E+00
-1.3115814226925337E+00
-1.3052714089751127E+00
-1.2989613952576915E+00
-1.2926513815402703E+00
-1.2863413678228492E+00
-1.2800313541054280E+00
-1.2737213403880070E+00
-1.2656084656084656E+00
-1.2574955908289240E+00
-1.2493827160493827E+00
-1.2453262786596120E+00
-1.2047619047619047E+00
-1.1956349206349206E+00
-1.1865079365079365E+00
-1.1773809523809524E+00
-1.1630385487528345E+00
-1.1569538926681784E+00
-1.1508692365835222E+00
-1.1447845804988661E+00
-1.1386999244142102E+00
-1.1326152683295541E+00
-1.1261294261294261E+00
-1.1198107448107448E+00
-1.1134920634920635E+00
-1.1071733821733820E+00
-1.1008547008547007E+00
-1.0952380952380951E+00
-1.0891534391534390E+00
-1.0830687830687831E+00
-1.0769841269841269E+00
-1.0708994708994708E+00
-1.0648148148148149E+00
-1.0599470899470900E+00
-1.0166907166907166E+00
-1.0100529100529101E+00
-1.0034151034151033E+00
-9.9677729677729676E-01
-9.9013949013949021E-01
-9.8340852130325818E-01
-9.7725981620718461E-01
-9.7111111111111115E-01
-9.6496240601503758E-01
-9.5881370091896401E-01
-9.5266499582289055E-01
-9.4997493734335836E-01
 QETSC: Bins             =
                   -INF
-2.2999999999999998E+00
-2.2933744855967078E+00
-2.2872898295120518E+00
-2.2812051734273955E+00
-2.2751205173427396E+00
-2.2690358612580837E+00
-2.2629475507253285E+00
-2.2568811668811666E+00
-2.2509609609609607E+00
-2.2450407550407547E+00
-2.2391205491205488E+00
-2.2332003432003429E+00
-2.2282668382668382E+00
-2.0509878299351980E+00
-1.3436842105263156E+00
-1.3369590643274853E+00
-1.3302339181286549E+00
-1.3235087719298244E+00
-1.3168192085151149E+00
-1.3103194199490495E+00
-1.3040094062316285E+00
-1.2976993925142073E+00
-1.2913893787967861E+00
-1.2850793650793650E+00
-1.2787693513619438E+00
-1.2720987654320988E+00
-1.2639858906525574E+00
-1.2558730158730158E+00
-1.2485714285714284E+00
-1.2372134038800706E+00
-1.2029365079365080E+00
-1.1938095238095239E+00
-1.1846825396825398E+00
-1.1745124716553288E+00
-1.1618216175359033E+00
-1.1557369614512472E+00
-1.1496523053665910E+00
-1.1435676492819349E+00
-1.1374829931972790E+00
-1.1313180998895285E+00
-1.1248656898656899E+00
-1.1185470085470086E+00
-1.1122283272283273E+00
-1.1059096459096458E+00
-1.0997313797313797E+00
-1.0940211640211639E+00
-1.0879365079365078E+00
-1.0818518518518518E+00
-1.0757671957671957E+00
-1.0696825396825396E+00
-1.0638412698412698E+00
-1.0512958152958154E+00
-1.0153631553631552E+00
-1.0087253487253487E+00
-1.0020875420875419E+00
-9.9544973544973547E-01
-9.8879329637224378E-01
-9.8217878028404348E-01
-9.7603007518796991E-01
-9.6988137009189646E-01
-9.6373266499582289E-01
-9.5758395989974932E-01
-9.5212698412698415E-01
-9.4920634920634916E-01
QETSC: Started iter            1
QETSC: Bin type used         =           7
QETSC: Buffer used           =   0.0000000000000000E+00
QETSC: EPS interval          =      -INF,    -0.949
QETSC: Inertia type          =           1
SLEPc: EPSSolve time = 12 1.646e-06
SLEPc: EPSSolve time = 27 1.678e-06
SLEPc: EPSSolve time = 0 3.326e-06
SLEPc: EPSSolve time = 32 3.056e-06
SLEPc: EPSSolve time = 13 1.910e-06
SLEPc: EPSSolve time = 52 1.981e-06
SLEPc: EPSSolve time = 31 3.982e-06
SLEPc: EPSSolve time = 53 1.938e-06
SLEPc: EPSSolve time = 30 3.578e-06
SLEPc: EPSSolve time = 63 1.904e-06
SLEPc: EPSSolve time = 28 1.811e-06
SLEPc: EPSSolve time = 54 3.382e-06
SLEPc: EPSSolve time = 29 1.668e-06
SLEPc: EPSSolve time = 51 1.886e-06
SLEPc: EPSSolve time = 50 5.384e+00
SLEPc: EPSSolve time = 62 5.491e+00
SLEPc: EPSSolve time = 26 5.547e+00
SLEPc: EPSSolve time = 15 5.555e+00
SLEPc: EPSSolve time = 1 5.571e+00
SLEPc: EPSSolve time = 14 5.586e+00
SLEPc: EPSSolve time = 2 5.601e+00
SLEPc: EPSSolve time = 48 5.650e+00
SLEPc: EPSSolve time = 33 5.681e+00
SLEPc: EPSSolve time = 38 5.709e+00
SLEPc: EPSSolve time = 55 5.709e+00
SLEPc: EPSSolve time = 17 5.721e+00
SLEPc: EPSSolve time = 44 5.721e+00
SLEPc: EPSSolve time = 42 5.724e+00
SLEPc: EPSSolve time = 49 5.736e+00
SLEPc: EPSSolve time = 16 5.786e+00
SLEPc: EPSSolve time = 40 5.818e+00
SLEPc: EPSSolve time = 22 5.829e+00
SLEPc: EPSSolve time = 46 5.830e+00
SLEPc: EPSSolve time = 35 5.844e+00
SLEPc: EPSSolve time = 39 5.855e+00
SLEPc: EPSSolve time = 18 5.860e+00
SLEPc: EPSSolve time = 37 5.861e+00
SLEPc: EPSSolve time = 3 5.878e+00
SLEPc: EPSSolve time = 19 5.878e+00
SLEPc: EPSSolve time = 41 5.882e+00
SLEPc: EPSSolve time = 36 5.898e+00
SLEPc: EPSSolve time = 24 5.910e+00
SLEPc: EPSSolve time = 61 5.911e+00
SLEPc: EPSSolve time = 25 5.964e+00
SLEPc: EPSSolve time = 34 5.979e+00
SLEPc: EPSSolve time = 47 5.979e+00
SLEPc: EPSSolve time = 4 5.990e+00
SLEPc: EPSSolve time = 6 6.008e+00
SLEPc: EPSSolve time = 20 6.010e+00
SLEPc: EPSSolve time = 11 6.037e+00
SLEPc: EPSSolve time = 21 6.055e+00
SLEPc: EPSSolve time = 5 6.065e+00
SLEPc: EPSSolve time = 45 6.067e+00
SLEPc: EPSSolve time = 43 6.078e+00
SLEPc: EPSSolve time = 8 6.104e+00
SLEPc: EPSSolve time = 7 6.137e+00
SLEPc: EPSSolve time = 23 6.204e+00
SLEPc: EPSSolve time = 9 6.295e+00
SLEPc: EPSSolve time = 60 6.316e+00
SLEPc: EPSSolve time = 10 6.356e+00
SLEPc: EPSSolve time = 56 7.784e+00
SLEPc: EPSSolve time = 59 8.230e+00
SLEPc: EPSSolve time = 58 8.991e+00
SLEPc: EPSSolve time = 57 9.053e+00
 QETSC: Eigenvalues         =
-2.2942690628581648E+00
-2.2915884994216942E+00
-2.2896858110285816E+00
-2.2887702009403337E+00
-2.2871893855683285E+00
-2.2864442651962440E+00
-2.2861183249658006E+00
-2.2846526193598455E+00
-2.2842757447009454E+00
-2.2838849403153731E+00
-2.2832597376925077E+00
-2.2826202848733521E+00
-2.2817977344205045E+00
-2.2807723115576151E+00
-2.2799192958388508E+00
-2.2796736362043171E+00
-2.2794625646533992E+00
-2.2790387687023119E+00
-2.2787413898837841E+00
-2.2783042952985628E+00
-2.2777764625635615E+00
-2.2770836314175473E+00
-2.2762865963685006E+00
-2.2762324003593344E+00
-2.2753415859596351E+00
-2.2749900340988050E+00
-2.2743175385671588E+00
-2.2738690925699689E+00
-2.2736510144693445E+00
-2.2731601396778642E+00
-2.2722736355734829E+00
-2.2718626563783744E+00
-2.2716372485707583E+00
-2.2710654791677292E+00
-2.2707219991903544E+00
-2.2705307103435342E+00
-2.2702128741747534E+00
-2.2697960991554038E+00
-2.2694817321788641E+00
-2.2692816488944270E+00
-2.2688425602110227E+00
-2.2680687756515900E+00
-2.2679429933377708E+00
-2.2676212969875031E+00
-2.2672988907711793E+00
-2.2669586985697214E+00
-2.2668328576681636E+00
-2.2664664309728026E+00
-2.2656407982522064E+00
-2.2653840999840269E+00
-2.2649376208451133E+00
-2.2647348708304720E+00
-2.2644244984389958E+00
-2.2635433553230784E+00
-2.2628490004930759E+00
-2.2624087521833292E+00
-2.2623506366917074E+00
-2.2617181215804529E+00
-2.2612513005171855E+00
-2.2609308311998264E+00
-2.2604805977944316E+00
-2.2600941457329107E+00
-2.2597923696226023E+00
-2.2594101258063568E+00
-2.2591144678915853E+00
-2.2588591469354555E+00
-2.2583724585643226E+00
-2.2580516869622391E+00
-2.2580424795069947E+00
-2.2573448842310539E+00
-2.2569543881446159E+00
-2.2564376889813857E+00
-2.2559933633951266E+00
-2.2558656814599178E+00
-2.2553007672815890E+00
-2.2550969554612892E+00
-2.2547972045674793E+00
-2.2546543720997421E+00
-2.2542411457914331E+00
-2.2539680889007609E+00
-2.2535887348866304E+00
-2.2534487633497684E+00
-2.2526824243218306E+00
-2.2524086470276297E+00
-2.2520019439714867E+00
-2.2513253251960501E+00
-2.2508525752879875E+00
-2.2506949894694914E+00
-2.2503018746960692E+00
-2.2497046828205418E+00
-2.2492648373470479E+00
-2.2491269551953725E+00
-2.2488743932046766E+00
-2.2483663850273081E+00
-2.2480622530948620E+00
-2.2477776116546448E+00
-2.2474912365676269E+00
-2.2472005157386823E+00
-2.2464806025749602E+00
-2.2458533768716453E+00
-2.2455471228788264E+00
-2.2453992139843968E+00
-2.2450032156242794E+00
-2.2448901664043515E+00
-2.2446090978846907E+00
-2.2442362860927099E+00
-2.2438517150039696E+00
-2.2433067158884037E+00
-2.2432047274368614E+00
-2.2428937088301857E+00
-2.2418899504623218E+00
-2.2414957006598653E+00
-2.2413577556944184E+00
-2.2408570790729430E+00
-2.2400244344608153E+00
-2.2399512944146274E+00
-2.2396231875987174E+00
-2.2391501246594037E+00
-2.2389536954495526E+00
-2.2388145908805175E+00
-2.2381296113895481E+00
-2.2375063830523838E+00
-2.2367386846868391E+00
-2.2364835818605786E+00
-2.2362797727998411E+00
-2.2356807818379063E+00
-2.2352029993864844E+00
-2.2340754124407649E+00
-1.3450505335226504E+00
-1.3381209246633072E+00
-1.3370903547836868E+00
-1.3360518880024728E+00
-1.3350334222278881E+00
-1.3338060640958207E+00
-1.3328997541346199E+00
-1.3319546925452805E+00
-1.3315511895013428E+00
-1.3310438176407771E+00
-1.3304846795488949E+00
-1.3294713142910448E+00
-1.3282467512102434E+00
-1.3266832116167813E+00
-1.3260468933902485E+00
-1.3256506200546994E+00
-1.3251920441296345E+00
-1.3247084077709068E+00
-1.3237405619322673E+00
-1.3232518508933666E+00
-1.3228810768706063E+00
-1.3220476689082701E+00
-1.3212147554786522E+00
-1.3207609129391862E+00
-1.3203078833749153E+00
-1.3199379835451734E+00
-1.3188596511595827E+00
-1.3187028376627372E+00
-1.3182790808711478E+00
-1.3180429069324811E+00
-1.3175154088694108E+00
-1.3173043428204656E+00
-1.3166322419837619E+00
-1.3164656015844838E+00
-1.3158598348646440E+00
-1.3152601846523877E+00
-1.3150780778937641E+00
-1.3144554512492794E+00
-1.3139919958791411E+00
-1.3139353664075608E+00
-1.3127493790714093E+00
-1.3121169680597382E+00
-1.3116942979710722E+00
-1.3111849903568613E+00
-1.3110280061346784E+00
-1.3106940727942265E+00
-1.3100514232746401E+00
-1.3096411272105433E+00
-1.3094479442730842E+00
-1.3088886777847082E+00
-1.3083800370368202E+00
-1.3075938614968214E+00
-1.3070920151012599E+00
-1.3066818437381880E+00
-1.3063854684421086E+00
-1.3060752949041856E+00
-1.3057625173019933E+00
-1.3053728047256925E+00
-1.3049288459337784E+00
-1.3046561464803565E+00
-1.3042130565403465E+00
-1.3037407642877812E+00
-1.3035691115942605E+00
-1.3031892932182805E+00
-1.3025750321560770E+00
-1.3022453876933984E+00
-1.3018798362270991E+00
-1.3016915578298616E+00
-1.3013637264944871E+00
-1.3006709358341308E+00
-1.3003880762174089E+00
-1.3001037291749151E+00
-1.2997070819472221E+00
-1.2993927770468394E+00
-1.2992060368967935E+00
-1.2982829311828183E+00
-1.2979832791193546E+00
-1.2977602033991467E+00
-1.2969398551548357E+00
-1.2964137894023202E+00
-1.2962394265286155E+00
-1.2957595940511650E+00
-1.2952468633043592E+00
-1.2949768662438297E+00
-1.2946349511009589E+00
-1.2940441335543214E+00
-1.2936347013269176E+00
-1.2929992470000815E+00
-1.2920852434482313E+00
-1.2918548634989591E+00
-1.2913881751297076E+00
-1.2909994718850568E+00
-1.2908774403005765E+00
-1.2902682431014958E+00
-1.2891482198809838E+00
-1.2888647408030507E+00
-1.2887310304517723E+00
-1.2881288324929052E+00
-1.2880577514019902E+00
-1.2875425990727343E+00
-1.2873119438777194E+00
-1.2869349338843179E+00
-1.2867902454403493E+00
-1.2865547820082206E+00
-1.2857729645199496E+00
-1.2856188472840040E+00
-1.2851178957358176E+00
-1.2848348190046623E+00
-1.2839115757136412E+00
-1.2835454684698879E+00
-1.2833280494735890E+00
-1.2826621438971662E+00
-1.2824147972135862E+00
-1.2816399411388155E+00
-1.2803896803089849E+00
-1.2800921776228398E+00
-1.2795124726291407E+00
-1.2787647700141787E+00
-1.2782907389652904E+00
-1.2774153946482720E+00
-1.2767004799593560E+00
-1.2754305415791971E+00
-1.2748468938931772E+00
-1.2734903064618937E+00
-1.2733844790737334E+00
-1.2722721316023951E+00
-1.2712019575783944E+00
-1.2644938901098519E+00
-1.1784272869549233E+00
-1.1776383245095234E+00
-1.1740926806653660E+00
-1.1698048211617533E+00
-1.1672458934899808E+00
-1.1653847234684283E+00
-1.1641847839711383E+00
-1.1633340971434909E+00
-1.1629666760519484E+00
-1.1613445801332520E+00
-1.1600331059754019E+00
-1.1580179666722326E+00
-1.1574016339007189E+00
-1.1563388662491707E+00
-1.1555693205293271E+00
-1.1552852737849859E+00
-1.1537522761729178E+00
-1.1534764755035305E+00
-1.1528598222411366E+00
-1.1516568741354971E+00
-1.1512703030790115E+00
-1.1494768408725708E+00
-1.1491088700388794E+00
-1.1482881212870850E+00
-1.1480247057249799E+00
-1.1468993465594639E+00
-1.1456484785112366E+00
-1.1454536984774115E+00
-1.1447770575952751E+00
-1.1438270730910016E+00
-1.1425061359296715E+00
-1.1417976047214313E+00
-1.1415431409988575E+00
-1.1407133896082562E+00
-1.1398027665834705E+00
-1.1387948918303699E+00
-1.1384787682955144E+00
-1.1379583010764938E+00
-1.1371129387579884E+00
-1.1361588626618333E+00
-1.1357314647053998E+00
-1.1348572099419256E+00
-1.1345399167232695E+00
-1.1332125113982308E+00
-1.1327929886648331E+00
-1.1318497997709576E+00
-1.1302155198534647E+00
-1.1301689638552723E+00
-1.1289620692808229E+00
-1.1286611291804964E+00
-1.1274305231654200E+00
-1.1265893454450771E+00
-1.1260793904912751E+00
-1.1257179424588784E+00
-1.1250174028749564E+00
-1.1244069201155515E+00
-1.1232372158726676E+00
-1.1218902469425691E+00
-1.1214113806925592E+00
-1.1212947308553587E+00
-1.1202118833597459E+00
-1.1200313229924073E+00
-1.1196359748230977E+00
-1.1189973025562201E+00
-1.1181660783302338E+00
-1.1176159049677912E+00
-1.1170048611135375E+00
-1.1161809155452325E+00
-1.1146373907436200E+00
-1.1144111515026578E+00
-1.1140277445459279E+00
-1.1132452651050473E+00
-1.1121003170969097E+00
-1.1111048544957944E+00
-1.1106267222044004E+00
-1.1098070607260162E+00
-1.1097158141993553E+00
-1.1091794626350753E+00
-1.1078059701545231E+00
-1.1074195999386516E+00
-1.1072329891258386E+00
-1.1062618352113103E+00
-1.1055505725683574E+00
-1.1047230116440367E+00
-1.1034231988937127E+00
-1.1025304616352756E+00
-1.1020260424171626E+00
-1.1015976587626406E+00
-1.1007940866876313E+00
-1.0995097035908425E+00
-1.0991835859242429E+00
-1.0985879425466529E+00
-1.0981983685435932E+00
-1.0977810836406314E+00
-1.0974087430165784E+00
-1.0962453812202742E+00
-1.0957468835687292E+00
-1.0952458655074979E+00
-1.0943235071564232E+00
-1.0941059170431344E+00
-1.0935136387894655E+00
-1.0925585575532422E+00
-1.0917752813613884E+00
-1.0912360709329862E+00
-1.0906489878096719E+00
-1.0894866171964714E+00
-1.0885483069395625E+00
-1.0879472073113181E+00
-1.0876067328216799E+00
-1.0861417860089599E+00
-1.0857405573882224E+00
-1.0847778790059630E+00
-1.0841163720768749E+00
-1.0836849793107473E+00
-1.0827063994088812E+00
-1.0822887166209825E+00
-1.0812574180678989E+00
-1.0805119165141186E+00
-1.0787735010717696E+00
-1.0785606974411048E+00
-1.0778306568645051E+00
-1.0756641068126482E+00
-1.0753383127048441E+00
-1.0743863805314775E+00
-1.0723485759763811E+00
-1.0716097469671626E+00
-1.0702154541833020E+00
-1.0674710429940042E+00
-1.0014987829967994E+00
-9.9698070433330377E-01
-9.9593930943638809E-01
-9.9563810528446650E-01
-9.9549740503740947E-01
-9.9492121220411034E-01
-9.9456594621644001E-01
-9.9384977538224906E-01
-9.9371612840044454E-01
-9.9307113621170662E-01
-9.9274396623830830E-01
-9.9188872118006377E-01
-9.9148102145569761E-01
-9.9131078395582062E-01
-9.9119701700186191E-01
-9.9084986275857767E-01
-9.9063126996612005E-01
-9.9040824396313187E-01
-9.8954799750229638E-01
-9.8938495407099114E-01
-9.8918529576447545E-01
-9.8889927176401848E-01
-9.8869136215580589E-01
-9.8851111983038575E-01
-9.8814240440892998E-01
-9.8748111052832055E-01
-9.8736243647420274E-01
-9.8690438945059711E-01
-9.8679187518693112E-01
-9.8661093528032950E-01
-9.8640806834612516E-01
-9.8610786923796634E-01
-9.8581315999546859E-01
-9.8568632169440118E-01
-9.8505007715771586E-01
-9.8484523321122774E-01
-9.8473350540961047E-01
-9.8456098065390329E-01
-9.8413094914849664E-01
-9.8405769207820026E-01
-9.8378674586163561E-01
-9.8329672596425377E-01
-9.8309463160978250E-01
-9.8287039335728288E-01
-9.8251811441446513E-01
-9.8221653202282277E-01
-9.8192534392689057E-01
-9.8166375999685984E-01
-9.8142985968730878E-01
-9.8125829758512806E-01
-9.8086870579056196E-01
-9.8058224349113698E-01
-9.8021545657867248E-01
-9.8009136182470136E-01
-9.7975448089552220E-01
-9.7964447878273153E-01
-9.7944546442772862E-01
-9.7937015026840069E-01
-9.7923459432821414E-01
-9.7900834974639050E-01
-9.7881916776915268E-01
-9.7878957598054239E-01
-9.7841218981588673E-01
-9.7831233129586992E-01
-9.7775248268453785E-01
-9.7770841346243476E-01
-9.7749529767777710E-01
-9.7729131641567035E-01
-9.7689177650888404E-01
-9.7675780595031481E-01
-9.7642571515172694E-01
-9.7618113222167924E-01
-9.7601429259067329E-01
-9.7583413392284912E-01
-9.7571706854694085E-01
-9.7526173613521094E-01
-9.7513360069748101E-01
-9.7468181928853226E-01
-9.7452268099837358E-01
-9.7434078460634432E-01
-9.7402640129373463E-01
-9.7377708075107983E-01
-9.7364979904066518E-01
-9.7340386033277115E-01
-9.7309993977074760E-01
-9.7281290373751650E-01
-9.7256170635248551E-01
-9.7230522163541144E-01
-9.7188994630040515E-01
-9.7159026550932048E-01
-9.7142060392884999E-01
-9.7101359907716489E-01
-9.7069734859338586E-01
-9.7063523487938419E-01
-9.7049632109136896E-01
-9.7016040254762081E-01
-9.6995239438625136E-01
-9.6964158235185927E-01
-9.6940602660933317E-01
-9.6887427227920897E-01
-9.6858910093293871E-01
-9.6854869727488613E-01
-9.6811394897074010E-01
-9.6771494972082994E-01
-9.6750531361940151E-01
-9.6732721792637022E-01
-9.6702157790961163E-01
-9.6692503860433188E-01
-9.6633351329084938E-01
-9.6619091981997374E-01
-9.6603080955246678E-01
-9.6567596547507384E-01
-9.6556349041604550E-01
-9.6554843064130891E-01
-9.6477412409792629E-01
-9.6399245508776255E-01
-9.6361632463584546E-01
-9.6334023884483633E-01
-9.6239426431148045E-01
-9.6202739810275040E-01
-9.6171025066074967E-01
-9.6160819316098234E-01
-9.6096517027150619E-01
-9.6071538112038868E-01
-9.6040063508262907E-01
-9.6006291333214844E-01
-9.5888179154990016E-01
-9.5630094115912090E-01
QETSC: Iter time (min)       =     1  19.26
QETSC: Iter time (max)       =     1  19.26
QETSC: Iter time (avg)       =     1  19.26
QETSC: Num. of conv. evals   =     1         512
QETSC: Eigenvalue (1)        =     1  -2.2942690628581648E+00
QETSC: Eigenvalue (nocc)     =     1  -9.5630094115912090E-01
QETSC: Max differrence       =     1   2.2942690628581648E+00
QETSC: Safe iteration        =     1      F
QETSC: Finished iter         =           1
 *****************************************************************
QETSC: SCF iter time=  19.390

siesta: Program's energy decomposition (eV):
siesta: Ebs     =    -19717.145141
siesta: Eions   =    104429.373288
siesta: Ena     =     25111.247127
siesta: Ekin    =     39771.655038
siesta: Enl     =     -5671.889728
siesta: DEna    =         0.000020
siesta: DUscf   =         0.000000
siesta: DUext   =         0.000000
siesta: Exc     =    -14272.759880
siesta: eta*DQ  =         0.000000
siesta: Emadel  =         0.000000
siesta: Emeta   =         0.000000
siesta: Emolmec =         0.000000
siesta: Ekinion =         0.000000
siesta: Eharris =    -60791.143089
siesta: Etot    =    -59491.120711
siesta: FreeEng =    -59491.120711
timer: Routine,Calls,Time,% =    IterSCF     1      21.200  49.87
 QETSC: Shifts, inertias         =
      -INF     0
    -2.300     0
    -2.263     0
    -2.227     0
    -2.190     0
    -2.154     0
    -2.117     0
    -2.081     0
    -2.044     0
    -2.008     0
    -1.971     0
    -1.935     0
    -1.898     0
    -1.862     0
    -1.825     0
    -1.789     0
    -1.752     0
    -1.716     0
    -1.679     0
    -1.643     1
    -1.606     5
    -1.570    13
    -1.533    32
    -1.497    54
    -1.460    81
    -1.424   105
    -1.387   121
    -1.351   127
    -1.314   128
    -1.278   128
    -1.241   128
    -1.205   128
    -1.168   128
    -1.132   128
    -1.095   128
    -1.059   128
    -1.022   128
    -0.986   128
    -0.949   128
    -0.913   128
    -0.876   128
    -0.840   133
    -0.803   145
    -0.767   167
    -0.730   190
    -0.694   217
    -0.657   241
    -0.621   253
    -0.584   256
    -0.548   257
    -0.511   259
    -0.475   263
    -0.438   276
    -0.402   293
    -0.365   308
    -0.329   329
    -0.292   348
    -0.256   368
    -0.219   389
    -0.183   415
    -0.146   445
    -0.110   476
    -0.073   497
    -0.037   510
     0.000   512
 QETSc: Custers,iter,crange,npcmax,trial 2 0.174893877551020385E-01 16 6
-1.6793650793650792E+00
-1.6337301587301587E+00
-1.6154761904761903E+00
-1.5926587301587301E+00
-1.5744047619047619E+00
-1.5525480367585629E+00
-1.5333333333333332E+00
-1.5150793650793650E+00
-1.4968253968253968E+00
-1.4792475014697237E+00
-1.4616696061140504E+00
-1.4435846560846559E+00
-1.4253306878306877E+00
-1.4078373015873016E+00
-1.3895833333333334E+00
-1.3751322751322750E+00
-1.3568783068783068E+00
-1.3507936507936507E+00
-8.6158730158730157E-01
-8.3968253968253970E-01
-8.2142857142857140E-01
-8.0151515151515151E-01
-7.8326118326118332E-01
-7.6507936507936514E-01
-7.4603174603174605E-01
-7.2745443856554970E-01
-7.0987654320987659E-01
-6.9212962962962965E-01
-6.7387566137566135E-01
-6.5714285714285714E-01
-6.3888888888888884E-01
-6.2063492063492065E-01
-5.9629629629629632E-01
-5.8412698412698416E-01
-5.4761904761904767E-01
-5.2936507936507948E-01
-5.0198412698412709E-01
-4.8373015873015879E-01
-4.5775335775335785E-01
-4.3809523809523815E-01
-4.1876750700280119E-01
-3.9915343915343920E-01
-3.7968253968253979E-01
-3.5986394557823137E-01
-3.4074074074074079E-01
-3.2280701754385971E-01
-3.0359231411862997E-01
-2.8476190476190483E-01
-2.6650793650793658E-01
-2.4860166288737726E-01
-2.2947845804988673E-01
-2.1062271062271073E-01
-1.9236874236874246E-01
-1.7402116402116413E-01
-1.5576719576719586E-01
-1.3778801843317981E-01
-1.2012288786482346E-01
-1.0256991685563126E-01
-8.3446712018140703E-02
-6.4590964590964708E-02
-4.4932844932845051E-02
-3.6507936507936628E-02
-1.2490009027033011E-16
 QETSC: Bins             =
                   -INF
-1.6793650793650792E+00
-1.6702380952380951E+00
-1.6300793650793650E+00
-1.6109126984126982E+00
-1.5890079365079364E+00
-1.5700334168755221E+00
-1.5487050960735169E+00
-1.5296825396825395E+00
-1.5114285714285713E+00
-1.4933098177542623E+00
-1.4757319223985890E+00
-1.4580526161081715E+00
-1.4399338624338622E+00
-1.4218320105820106E+00
-1.4041865079365079E+00
-1.3866931216931218E+00
-1.3714814814814813E+00
-1.3556613756613756E+00
-1.2529523809523808E+00
-8.5720634920634919E-01
-8.3603174603174601E-01
-8.1744588744588742E-01
-7.9786435786435783E-01
-7.7962481962481966E-01
-7.6126984126984132E-01
-7.4231628453850673E-01
-7.2393885949441505E-01
-7.0632716049382716E-01
-6.8847883597883597E-01
-6.7052910052910053E-01
-6.5349206349206346E-01
-6.3523809523809516E-01
-6.1576719576719574E-01
-5.9386243386243387E-01
-5.7682539682539691E-01
-5.4396825396825399E-01
-5.2388888888888896E-01
-4.9833333333333341E-01
-4.7853479853479858E-01
-4.5382173382173391E-01
-4.3422969187675076E-01
-4.1484469343292879E-01
-3.9525925925925931E-01
-3.7571882086167813E-01
-3.5603930461073324E-01
-3.3715399610136459E-01
-3.1896407685881378E-01
-2.9982623224728494E-01
-2.8111111111111120E-01
-2.6292668178382472E-01
-2.4477702191987916E-01
-2.2570730856445154E-01
-2.0697191697191708E-01
-1.8869922669922679E-01
-1.7037037037037048E-01
-1.5217136030039266E-01
-1.3425499231950855E-01
-1.1661229366298502E-01
-9.8745275888133144E-02
-7.9675562532705510E-02
-6.0659340659340776E-02
-4.3247863247863366E-02
-2.9206349206349326E-02
-1.2490009027033011E-16
QETSC: Started iter            2
QETSC: Bin type used         =           7
QETSC: Buffer used           =   0.0000000000000000E+00
QETSC: EPS interval          =      -INF,     0.000
QETSC: Inertia type          =           1
SLEPc: EPSSolve time = 0 3.329e-06
SLEPc: EPSSolve time = 36 1.846e-06
SLEPc: EPSSolve time = 1 1.476e-06
SLEPc: EPSSolve time = 34 5.434e+00
SLEPc: EPSSolve time = 35 5.438e+00
SLEPc: EPSSolve time = 33 5.577e+00
SLEPc: EPSSolve time = 5 5.589e+00
SLEPc: EPSSolve time = 37 5.620e+00
SLEPc: EPSSolve time = 18 5.644e+00
SLEPc: EPSSolve time = 3 5.666e+00
SLEPc: EPSSolve time = 32 5.672e+00
SLEPc: EPSSolve time = 2 5.677e+00
SLEPc: EPSSolve time = 38 5.683e+00
SLEPc: EPSSolve time = 16 5.709e+00
SLEPc: EPSSolve time = 19 5.719e+00
SLEPc: EPSSolve time = 46 5.760e+00
SLEPc: EPSSolve time = 20 5.774e+00
SLEPc: EPSSolve time = 15 5.792e+00
SLEPc: EPSSolve time = 41 5.812e+00
SLEPc: EPSSolve time = 4 5.827e+00
SLEPc: EPSSolve time = 63 5.845e+00
SLEPc: EPSSolve time = 8 5.850e+00
SLEPc: EPSSolve time = 9 5.868e+00
SLEPc: EPSSolve time = 43 5.890e+00
SLEPc: EPSSolve time = 21 5.906e+00
SLEPc: EPSSolve time = 10 5.920e+00
SLEPc: EPSSolve time = 17 5.941e+00
SLEPc: EPSSolve time = 62 5.965e+00
SLEPc: EPSSolve time = 40 5.973e+00
SLEPc: EPSSolve time = 44 5.992e+00
SLEPc: EPSSolve time = 42 5.992e+00
SLEPc: EPSSolve time = 14 6.005e+00
SLEPc: EPSSolve time = 45 6.009e+00
SLEPc: EPSSolve time = 39 6.012e+00
SLEPc: EPSSolve time = 7 6.028e+00
SLEPc: EPSSolve time = 47 6.028e+00
SLEPc: EPSSolve time = 60 6.034e+00
SLEPc: EPSSolve time = 50 6.047e+00
SLEPc: EPSSolve time = 13 6.049e+00
SLEPc: EPSSolve time = 23 6.070e+00
SLEPc: EPSSolve time = 12 6.071e+00
SLEPc: EPSSolve time = 11 6.087e+00
SLEPc: EPSSolve time = 6 6.095e+00
SLEPc: EPSSolve time = 22 6.103e+00
SLEPc: EPSSolve time = 25 6.125e+00
SLEPc: EPSSolve time = 28 6.145e+00
SLEPc: EPSSolve time = 61 6.146e+00
SLEPc: EPSSolve time = 48 6.157e+00
SLEPc: EPSSolve time = 31 6.162e+00
SLEPc: EPSSolve time = 49 6.171e+00
SLEPc: EPSSolve time = 24 6.183e+00
SLEPc: EPSSolve time = 29 6.184e+00
SLEPc: EPSSolve time = 51 6.209e+00
SLEPc: EPSSolve time = 53 6.219e+00
SLEPc: EPSSolve time = 27 6.244e+00
SLEPc: EPSSolve time = 30 6.251e+00
SLEPc: EPSSolve time = 26 6.322e+00
SLEPc: EPSSolve time = 54 6.338e+00
SLEPc: EPSSolve time = 59 6.364e+00
SLEPc: EPSSolve time = 52 6.433e+00
SLEPc: EPSSolve time = 58 6.437e+00
SLEPc: EPSSolve time = 56 6.455e+00
SLEPc: EPSSolve time = 55 6.467e+00
SLEPc: EPSSolve time = 57 6.486e+00
 QETSC: Eigenvalues         =
-1.6575748077319610E+00
-1.6412756904086858E+00
-1.6281966320088719E+00
-1.6151475121700463E+00
-1.6084039607215099E+00
-1.6034305631489747E+00
-1.5989905267804678E+00
-1.5966625358497941E+00
-1.5952286717626136E+00
-1.5873307760140118E+00
-1.5819270248785418E+00
-1.5799648061963392E+00
-1.5738984025021947E+00
-1.5697039950525284E+00
-1.5670832583431977E+00
-1.5666224245783142E+00
-1.5648000501188679E+00
-1.5595168211592467E+00
-1.5591315533557402E+00
-1.5564743480940011E+00
-1.5549190273565090E+00
-1.5509243304163582E+00
-1.5500057674737615E+00
-1.5494900224161685E+00
-1.5481087096622077E+00
-1.5422861211296528E+00
-1.5418101256771972E+00
-1.5411334375218386E+00
-1.5371296074604093E+00
-1.5354054601715121E+00
-1.5351523262630677E+00
-1.5336779875133162E+00
-1.5329312013811038E+00
-1.5320181519508425E+00
-1.5306575617228304E+00
-1.5297131691394843E+00
-1.5279654961600448E+00
-1.5274400781420379E+00
-1.5229012690295762E+00
-1.5202341509456454E+00
-1.5180393892674133E+00
-1.5170618842786074E+00
-1.5167194051791260E+00
-1.5144178401359840E+00
-1.5119129925847310E+00
-1.5108612653335742E+00
-1.5106774045619393E+00
-1.5090991055874459E+00
-1.5051579871488407E+00
-1.5042932060686098E+00
-1.5021926076395042E+00
-1.5015262297127157E+00
-1.4988497180036635E+00
-1.4969569242322278E+00
-1.4966067799196743E+00
-1.4934746131980294E+00
-1.4917098054843090E+00
-1.4894793266923241E+00
-1.4884890258571182E+00
-1.4882844286704446E+00
-1.4850099009419333E+00
-1.4828681899770710E+00
-1.4818171673785814E+00
-1.4806936192571838E+00
-1.4800820719542080E+00
-1.4787601585021974E+00
-1.4770995702815299E+00
-1.4741875403453399E+00
-1.4736665474657036E+00
-1.4717809998144860E+00
-1.4709973926834063E+00
-1.4700849301277930E+00
-1.4695167819306167E+00
-1.4679613029453045E+00
-1.4671197978717916E+00
-1.4662350330213680E+00
-1.4653115389305358E+00
-1.4646035160658548E+00
-1.4624801839264185E+00
-1.4621189149690892E+00
-1.4607465449139290E+00
-1.4589629731501035E+00
-1.4578555778461364E+00
-1.4555919845201939E+00
-1.4543232636553689E+00
-1.4530523487104998E+00
-1.4524650028901784E+00
-1.4520293807284597E+00
-1.4505959581386216E+00
-1.4482575756308489E+00
-1.4477601765486812E+00
-1.4470245522019283E+00
-1.4445991016499424E+00
-1.4430587150469227E+00
-1.4398300010204101E+00
-1.4382529534185162E+00
-1.4368804326327276E+00
-1.4360202252296086E+00
-1.4352960975041367E+00
-1.4343225300067002E+00
-1.4300328225810419E+00
-1.4289180485011177E+00
-1.4260957631536846E+00
-1.4255320666734408E+00
-1.4241880391254698E+00
-1.4213849789031796E+00
-1.4189040170297469E+00
-1.4180205258265228E+00
-1.4173348076498238E+00
-1.4155184899493733E+00
-1.4131683262150501E+00
-1.4127529460106849E+00
-1.4056366941485323E+00
-1.4052997133722644E+00
-1.4015161348947047E+00
-1.4011798319292330E+00
-1.3997661466468581E+00
-1.3992159562698474E+00
-1.3957918741674047E+00
-1.3917041739058846E+00
-1.3893521922354111E+00
-1.3862389906955532E+00
-1.3761768196777591E+00
[...]

/home/keceli/scratch2/siesta-qetsc/Obj/siesta on a arch-xl named Q02-I4-J07.vesta.itd with 64 processors, by Unknown Thu Jan 12 13:22:00 2017
Using Petsc Development GIT revision: v3.7.3-1204-g68f0caa  GIT Date: 2016-08-19 16:41:02 -0500

                         Max       Max/Min        Avg      Total 
Time (sec):           2.330e+02      1.00000   2.330e+02
Objects:              2.924e+03      1.06211   2.916e+03
Flops:                6.948e+09   1427.85741   6.201e+09  3.968e+11
Flops/sec:            2.982e+07   1427.85740   2.661e+07  1.703e+09
MPI Messages:         1.714e+04      1.51740   1.452e+04  9.294e+05
MPI Message Lengths:  1.017e+08      2.59566   4.841e+03  4.499e+09
MPI Reductions:       1.190e+04      1.00000

Flop counting convention: 1 flop = 1 real number operation of type (multiply/divide/add/subtract)
                            e.g., VecAXPY() for real vectors of length N --> 2N flops
                            and VecAXPY() for complex vectors of length N --> 8N flops

Summary of Stages:   ----- Time ------  ----- Flops -----  --- Messages ---  -- Message Lengths --  -- Reductions --
                        Avg     %Total     Avg     %Total   counts   %Total     Avg         %Total   counts   %Total 
 0:      Main Stage: 1.9614e-04   0.0%  0.0000e+00   0.0%  0.000e+00   0.0%  0.000e+00        0.0%  0.000e+00   0.0% 
 1:     siesta_init: 4.2011e+00   1.8%  0.0000e+00   0.0%  0.000e+00   0.0%  0.000e+00        0.0%  0.000e+00   0.0% 
 2:   siesta_forces: 1.9173e+01   8.2%  0.0000e+00   0.0%  0.000e+00   0.0%  0.000e+00        0.0%  0.000e+00   0.0% 
 3:    siesta_solve: 5.2095e-03   0.0%  0.0000e+00   0.0%  0.000e+00   0.0%  0.000e+00        0.0%  0.000e+00   0.0% 
 4:    siesta2qetsc: 2.1502e-01   0.1%  0.0000e+00   0.0%  1.415e+04   1.5%  1.030e+00        0.0%  6.900e+01   0.6% 
 5: qetsc_setup_eps: 2.3915e+01  10.3%  3.1141e+08   0.1%  2.830e+05  30.4%  4.642e+03       95.9%  5.400e+01   0.5% 
 6: qetsc_solve_eps: 1.3502e+02  58.0%  3.9653e+11  99.9%  1.638e+03   0.2%  1.057e-02        0.0%  1.040e+02   0.9% 
 7:   qetsc_eigvals: 4.6481e-02   0.0%  0.0000e+00   0.0%  0.000e+00   0.0%  0.000e+00        0.0%  0.000e+00   0.0% 
 8:   qetsc_density: 1.8622e+01   8.0%  0.0000e+00   0.0%  6.307e+05  67.9%  1.979e+02        4.1%  1.168e+04  98.1% 
10:     siesta_misc: 3.0369e+01  13.0%  0.0000e+00   0.0%  0.000e+00   0.0%  0.000e+00        0.0%  0.000e+00   0.0% 
11:     siesta_move: 1.1485e-01   0.0%  0.0000e+00   0.0%  0.000e+00   0.0%  0.000e+00        0.0%  0.000e+00   0.0% 
12: siesta_analysis: 2.3891e-02   0.0%  0.0000e+00   0.0%  0.000e+00   0.0%  0.000e+00        0.0%  0.000e+00   0.0% 
13:     qetsc_clean: 3.3409e-06   0.0%  0.0000e+00   0.0%  0.000e+00   0.0%  0.000e+00        0.0%  0.000e+00   0.0% 
14:      siesta_end: 1.2688e+00   0.5%  0.0000e+00   0.0%  0.000e+00   0.0%  0.000e+00        0.0%  0.000e+00   0.0% 

------------------------------------------------------------------------------------------------------------------------
See the 'Profiling' chapter of the users' manual for details on interpreting output.
Phase summary info:
   Count: number of times phase was executed
   Time and Flops: Max - maximum over all processors
                   Ratio - ratio of maximum to minimum over all processors
   Mess: number of messages sent
   Avg. len: average message length (bytes)
   Reduct: number of global reductions
   Global: entire computation
   Stage: stages of a computation. Set stages with PetscLogStagePush() and PetscLogStagePop().
      %T - percent time in this phase         %F - percent flops in this phase
      %M - percent messages in this phase     %L - percent message lengths in this phase
      %R - percent reductions in this phase
   Total Mflop/s: 10e-6 * (sum of flops over all processors)/(max time over all processors)
------------------------------------------------------------------------------------------------------------------------
Event                Count      Time (sec)     Flops                             --- Global ---  --- Stage ---   Total
                   Max Ratio  Max     Ratio   Max  Ratio  Mess   Avg len Reduct  %T %F %M %L %R  %T %F %M %L %R Mflop/s
------------------------------------------------------------------------------------------------------------------------

--- Event Stage 0: Main Stage


--- Event Stage 1: siesta_init


--- Event Stage 2: siesta_forces


--- Event Stage 3: siesta_solve


--- Event Stage 4: siesta2qetsc

MatConvert             2 1.0 1.4607e-03 1.2 0.00e+00 0.0 0.0e+00 0.0e+00 0.0e+00  0  0  0  0  0   1  0  0  0  0     0
MatAssemblyBegin      14 1.0 1.6982e-0186.9 0.00e+00 0.0 0.0e+00 0.0e+00 5.6e+01  0  0  0  0  0  48  0  0  0 81     0
MatAssemblyEnd        14 1.0 6.7821e-03 1.0 0.00e+00 0.0 1.4e+04 6.8e+01 1.1e+01  0  0  2  0  0   3  0100100 16     0
VecSet                 3 1.0 1.5368e-05 1.8 0.00e+00 0.0 0.0e+00 0.0e+00 0.0e+00  0  0  0  0  0   0  0  0  0  0     0

--- Event Stage 5: qetsc_setup_eps

MatCholFctrSym         1 1.0 1.1169e+00 1.0 0.00e+00 0.0 0.0e+00 0.0e+00 0.0e+00  0  0  0  0  0   5  0  0  0  0     0
MatCholFctrNum         6 1.0 1.8121e+01 1.2 0.00e+00 0.0 0.0e+00 0.0e+00 0.0e+00  7  0  0  0  0  71  0  0  0  0     0
MatCopy               16 1.0 7.0226e-01 1.1 0.00e+00 0.0 0.0e+00 0.0e+00 0.0e+00  0  0  0  0  0   3  0  0  0  0     0
MatConvert             4 1.0 3.7015e-02 2.7 0.00e+00 0.0 0.0e+00 0.0e+00 0.0e+00  0  0  0  0  0   0  0  0  0  0     0
MatScale              24 1.0 2.8604e-02 8.7 4.87e+06 1.0 0.0e+00 0.0e+00 0.0e+00  0  0  0  0  0   0100  0  0  0 10887
MatAssemblyBegin      25 1.0 5.6308e-05 1.5 0.00e+00 0.0 0.0e+00 0.0e+00 0.0e+00  0  0  0  0  0   0  0  0  0  0     0
MatAssemblyEnd        25 1.0 1.0217e-01 1.2 0.00e+00 0.0 0.0e+00 0.0e+00 0.0e+00  0  0  0  0  0   0  0  0  0  0     0
MatGetRow          50048 1.0 5.0859e-01 1.0 0.00e+00 0.0 0.0e+00 0.0e+00 0.0e+00  0  0  0  0  0   2  0  0  0  0     0
MatGetRowIJ            1 1.0 4.1213e-06 4.5 0.00e+00 0.0 0.0e+00 0.0e+00 0.0e+00  0  0  0  0  0   0  0  0  0  0     0
MatGetSubMatrice      14 1.0 1.7068e+00 1.4 0.00e+00 0.0 2.8e+05 1.5e+04 2.8e+01  1  0 30 96  0   7  0100100 52     0
MatGetOrdering         1 1.0 5.0638e-04 1.8 0.00e+00 0.0 0.0e+00 0.0e+00 0.0e+00  0  0  0  0  0   0  0  0  0  0     0
MatZeroEntries         5 1.0 1.2826e-02 1.2 0.00e+00 0.0 0.0e+00 0.0e+00 0.0e+00  0  0  0  0  0   0  0  0  0  0     0
MatAXPY               18 1.0 1.6396e+00 1.0 0.00e+00 0.0 0.0e+00 0.0e+00 0.0e+00  1  0  0  0  0   7  0  0  0  0     0
MatRedundantMat       14 1.0 1.7303e+00 1.4 0.00e+00 0.0 2.8e+05 1.5e+04 2.8e+01  1  0 30 96  0   7  0100100 52     0
VecSet                22 1.0 7.7335e-04 2.5 0.00e+00 0.0 0.0e+00 0.0e+00 0.0e+00  0  0  0  0  0   0  0  0  0  0     0
EPSSetUp               6 1.0 2.2576e+01 1.0 0.00e+00 0.0 4.1e+04 1.5e+04 2.8e+01 10  0  4 14  0  94  0 15 14 52     0
STSetUp               12 1.0 2.1440e+01 1.1 0.00e+00 0.0 0.0e+00 0.0e+00 2.0e+00  9  0  0  0  0  85  0  0  0  4     0
KSPSetUp               6 1.0 1.8802e-05 2.5 0.00e+00 0.0 0.0e+00 0.0e+00 0.0e+00  0  0  0  0  0   0  0  0  0  0     0
PCSetUp                6 1.0 1.9212e+01 1.1 0.00e+00 0.0 0.0e+00 0.0e+00 0.0e+00  8  0  0  0  0  75  0  0  0  0     0

--- Event Stage 6: qetsc_solve_eps

MatMult             3401 0.0 2.8170e+01 0.0 5.49e+09 0.0 0.0e+00 0.0e+00 0.0e+00 11 78  0  0  0  19 78  0  0  0 11043
MatSolve            1282 0.0 5.4852e+01 0.0 0.00e+00 0.0 0.0e+00 0.0e+00 0.0e+00 20  0  0  0  0  35  0  0  0  0     0
MatCholFctrNum        13 1.1 3.8753e+01 1.2 0.00e+00 0.0 0.0e+00 0.0e+00 0.0e+00 16  0  0  0  0  27  0  0  0  0     0
MatCopy               13 1.1 1.7277e+00 1.1 0.00e+00 0.0 0.0e+00 0.0e+00 0.0e+00  1  0  0  0  0   1  0  0  0  0     0
MatAssemblyBegin      26 1.1 3.7009e-05 1.5 0.00e+00 0.0 0.0e+00 0.0e+00 0.0e+00  0  0  0  0  0   0  0  0  0  0     0
MatAssemblyEnd        26 1.1 9.9072e-02 1.1 0.00e+00 0.0 0.0e+00 0.0e+00 0.0e+00  0  0  0  0  0   0  0  0  0  0     0
MatGetRow         114816 1.1 1.1585e+00 1.1 0.00e+00 0.0 0.0e+00 0.0e+00 0.0e+00  0  0  0  0  0   1  0  0  0  0     0
MatZeroEntries        13 1.1 3.3444e-02 1.2 0.00e+00 0.0 0.0e+00 0.0e+00 0.0e+00  0  0  0  0  0   0  0  0  0  0     0
MatAXPY               13 1.1 3.3814e+00 1.1 0.00e+00 0.0 0.0e+00 0.0e+00 0.0e+00  1  0  0  0  0   2  0  0  0  0     0
VecDot               188 0.0 3.1382e-03 0.0 1.11e+06 0.0 0.0e+00 0.0e+00 0.0e+00  0  0  0  0  0   0  0  0  0  0 12486
VecCopy             1297 0.0 1.2642e-02 0.0 0.00e+00 0.0 0.0e+00 0.0e+00 0.0e+00  0  0  0  0  0   0  0  0  0  0     0
VecSet              4800123.1 5.1974e-02190.7 0.00e+00 0.0 0.0e+00 0.0e+00 0.0e+00  0  0  0  0  0   0  0  0  0  0     0
VecSetRandom          13 0.0 2.2886e-02 0.0 0.00e+00 0.0 0.0e+00 0.0e+00 0.0e+00  0  0  0  0  0   0  0  0  0  0     0
EPSSetUp              13 1.0 4.7771e+01 1.0 0.00e+00 0.0 1.6e+03 6.0e+00 2.6e+01 20  0  0  0  0  35  0100100 25     0
EPSSolve              13 1.0 1.3527e+02 1.0 6.94e+09 0.0 1.6e+03 6.0e+00 1.0e+02 58100  0  0  1 100100100100100  2931
STSetUp               20 1.0 2.3700e+01 1.1 0.00e+00 0.0 0.0e+00 0.0e+00 0.0e+00 10  0  0  0  0  17  0  0  0  0     0
STApply             1282 0.0 6.5693e+01 0.0 2.07e+09 0.0 0.0e+00 0.0e+00 0.0e+00 24 29  0  0  0  42 29  0  0  0  1743
STMatSolve          1282 0.0 5.5093e+01 0.0 0.00e+00 0.0 0.0e+00 0.0e+00 0.0e+00 20  0  0  0  0  35  0  0  0  0     0
KSPSetUp              13 1.1 2.8699e-05 2.0 0.00e+00 0.0 0.0e+00 0.0e+00 0.0e+00  0  0  0  0  0   0  0  0  0  0     0
KSPSolve            1282 0.0 5.4929e+01 0.0 0.00e+00 0.0 0.0e+00 0.0e+00 0.0e+00 20  0  0  0  0  35  0  0  0  0     0
PCSetUp               13 1.1 3.8753e+01 1.2 0.00e+00 0.0 0.0e+00 0.0e+00 0.0e+00 16  0  0  0  0  27  0  0  0  0     0
PCApply             1282 0.0 5.4861e+01 0.0 0.00e+00 0.0 0.0e+00 0.0e+00 0.0e+00 20  0  0  0  0  35  0  0  0  0     0
BVCreate              26 0.0 2.3333e-02 0.0 0.00e+00 0.0 0.0e+00 0.0e+00 0.0e+00  0  0  0  0  0   0  0  0  0  0     0
BVCopy                15 0.0 2.1943e-04 0.0 0.00e+00 0.0 0.0e+00 0.0e+00 0.0e+00  0  0  0  0  0   0  0  0  0  0     0
BVMultVec           2088 0.0 6.0936e-01 0.0 4.96e+08 0.0 0.0e+00 0.0e+00 0.0e+00  0  7  0  0  0   0  7  0  0  0 44857
BVMultInPlace         15 0.0 2.2173e-01 0.0 4.94e+08 0.0 0.0e+00 0.0e+00 0.0e+00  0  8  0  0  0   0  8  0  0  0 134667
BVDotVec            2088 0.0 1.7794e+01 0.0 3.88e+09 0.0 0.0e+00 0.0e+00 0.0e+00  7 54  0  0  0  11 54  0  0  0 12017
BVOrthogonalizeV    1100 0.0 1.8387e+01 0.0 4.37e+09 0.0 0.0e+00 0.0e+00 0.0e+00  7 61  0  0  0  12 61  0  0  0 13117
BVScale             1282 0.0 1.4208e-02 0.0 3.77e+06 0.0 0.0e+00 0.0e+00 0.0e+00  0  0  0  0  0   0  0  0  0  0 14709
BVNormVec            188 0.0 1.5529e+00 0.0 3.04e+08 0.0 0.0e+00 0.0e+00 0.0e+00  0  3  0  0  0   1  3  0  0  0  6939
BVSetRandom           13 0.0 2.3009e-02 0.0 0.00e+00 0.0 0.0e+00 0.0e+00 0.0e+00  0  0  0  0  0   0  0  0  0  0     0
DSSolve               15 0.0 1.9586e-01 0.0 0.00e+00 0.0 0.0e+00 0.0e+00 0.0e+00  0  0  0  0  0   0  0  0  0  0     0
DSVectors           1133 0.0 2.7286e-03 0.0 0.00e+00 0.0 0.0e+00 0.0e+00 0.0e+00  0  0  0  0  0   0  0  0  0  0     0
DSOther               15 0.0 6.7548e-03 0.0 0.00e+00 0.0 0.0e+00 0.0e+00 0.0e+00  0  0  0  0  0   0  0  0  0  0     0

--- Event Stage 7: qetsc_eigvals


--- Event Stage 8: qetsc_density

VecCopy             6656 1.0 1.7171e-02 1.1 0.00e+00 0.0 0.0e+00 0.0e+00 0.0e+00  0  0  0  0  0   0  0  0  0  0     0
VecSet                 1 1.0 5.5081e-06 1.2 0.00e+00 0.0 0.0e+00 0.0e+00 0.0e+00  0  0  0  0  0   0  0  0  0  0     0
VecScatterBegin    13312 1.0 3.4440e+00 3.4 0.00e+00 0.0 4.2e+05 3.7e+02 6.7e+03  1  0 45  3 56  12  0 66 84 57     0
VecScatterEnd       6656 1.0 2.6804e+00 1.1 0.00e+00 0.0 0.0e+00 0.0e+00 0.0e+00  1  0  0  0  0  14  0  0  0  0     0
BVCopy              6656 1.0 4.9618e-02 1.1 0.00e+00 0.0 0.0e+00 0.0e+00 0.0e+00  0  0  0  0  0   0  0  0  0  0     0

--- Event Stage 9: Unknown


--- Event Stage 10: siesta_misc


--- Event Stage 11: siesta_move


--- Event Stage 12: siesta_analysis


--- Event Stage 13: qetsc_clean


--- Event Stage 14: siesta_end

------------------------------------------------------------------------------------------------------------------------

Memory usage is given in bytes:

Object Type          Creations   Destructions     Memory  Descendants' Mem.
Reports information only for process 0.

--- Event Stage 0: Main Stage


--- Event Stage 1: siesta_init


--- Event Stage 2: siesta_forces


--- Event Stage 3: siesta_solve


--- Event Stage 4: siesta2qetsc

              Matrix     9              0            0     0.
              Vector    19              1         1648     0.
      Vector Scatter     4              0            0     0.
           Index Set     4              4        28744     0.

--- Event Stage 5: qetsc_setup_eps

              Matrix    14              6     38346736     0.
              Vector    43             25       391480     0.
           Index Set    36             29        22736     0.
          EPS Solver     2              0            0     0.
  Spectral Transform     2              0            0     0.
       Krylov Solver     2              0            0     0.
      Preconditioner     2              0            0     0.
       Basis Vectors     8              5         5280     0.
         PetscRandom     1              0            0     0.
              Region     2              0            0     0.
       Direct Solver     2              0            0     0.

--- Event Stage 6: qetsc_solve_eps

              Matrix    12             12     78315408     0.
              Vector    65             65      1017848     0.
       Basis Vectors    13             13        13728     0.

--- Event Stage 7: qetsc_eigvals


--- Event Stage 8: qetsc_density

              Vector    14             13       327600     0.
      Vector Scatter   833            832       896688     0.
           Index Set  1665           1665      1611536     0.

--- Event Stage 9: Unknown


--- Event Stage 10: siesta_misc


--- Event Stage 11: siesta_move

              Matrix     0             17     49227440     0.
              Vector     0             37      2399960     0.
      Vector Scatter     0              5         4944     0.
           Index Set     0              7        17264     0.
          EPS Solver     0              2        31772     0.
  Spectral Transform     0              2         1632     0.
       Krylov Solver     0              2         2336     0.
      Preconditioner     0              2         1952     0.
       Basis Vectors     0              3         3168     0.
         PetscRandom     0              1          638     0.
              Region     0              2         1312     0.
       Direct Solver     0              2       109992     0.

--- Event Stage 12: siesta_analysis


--- Event Stage 13: qetsc_clean


--- Event Stage 14: siesta_end

              Viewer     1              0            0     0.
========================================================================================================================
Average time to get PetscTime(): 1.24437e-07
Average time for MPI_Barrier(): 2.84075e-06
Average time for zero size MPI_Send(): 1.12502e-05
#PETSc Option Table entries:
-eps_interval -2.3,0.
-eps_krylovschur_detect_zeros 0
-eps_krylovschur_partitions 64
-ioptbin 7
-ioptdensity 0
-ioptinertia 1
-ioptleft 2
-log_view
-mat_mumps_cntl_3 1e-12
-mat_mumps_icntl_13 1
-mat_mumps_icntl_23 0
-mat_mumps_icntl_24 1
-mat_mumps_icntl_7 5
-mat_type mpisbaij
-roptbuffer 0.1
-roptdiff 0.02
-writeeigs 1
#End of PETSc Option Table entries
Compiled with FORTRAN kernels
Compiled with full precision matrices (default)
sizeof(short) 2 sizeof(int) 4 sizeof(long) 8 sizeof(void*) 8 sizeof(PetscScalar) 8 sizeof(PetscInt) 4
Configure options: --known-has-attribute-aligned=1 --download-chaco=0 --download-cmake=0 --download-hypre=0 --download-metis=1 --download-mumps=1 --download-parmetis=1 --download-plapack=0 --download-prometheus=0 --download-ptscotch=1 --download-spai=0 --download-spooles=0 --download-superlu=0 --download-superlu_dist=0 --download-triangle=0 --known-bits-per-byte=8 --known-level1-dcache-assoc=0 --known-level1-dcache-linesize=32 --known-level1-dcache-size=32768 --known-memcmp-ok=1 --known-mpi-c-double-complex=1 --known-mpi-int64_t=1 --known-mpi-long-double=1 --known-mpi-shared-libraries=0 --known-sdot-returns-double=0 --known-sizeof-MPI_Comm=4 --known-sizeof-MPI_Fint=4 --known-sizeof-char=1 --known-sizeof-double=8 --known-sizeof-float=4 --known-sizeof-int=4 --known-sizeof-long-long=8 --known-sizeof-long=8 --known-sizeof-short=2 --known-sizeof-size_t=8 --known-sizeof-void-p=8 --known-snrm2-returns-double=0 --with-batch=1 --with-blacs-include=/soft/libraries/alcf/current/xl/SCALAPACK/ --with-blacs-lib=/soft/libraries/alcf/current/xl/SCALAPACK/lib/libscalapack.a --with-blas-lapack-lib="-L/soft/libraries/alcf/current/xl/LAPACK/lib -llapack -L/soft/libraries/alcf/current/xl/BLAS/lib -lblas" --with-cc=mpixlc_r --with-clib-autodetect=0 --with-cxx=mpixlcxx_r --with-cxxlib-autodetect=0 --with-debugging=0 --with-fc="mpixlf77_r -qnosave" --with-fortran-kernels=1 --with-fortranlib-autodetect=0 --with-is-color-value-type=short --with-scalapack-include=/soft/libraries/alcf/current/xl/SCALAPACK/ --with-scalapack-lib=/soft/libraries/alcf/current/xl/SCALAPACK/lib/libscalapack.a --with-shared-libraries=0 --with-x=0 -COPTFLAGS=" -g -O3 -qhot=level=0 -qsimd=auto -qmaxmem=-1 -qstrict -qstrict_induction" -CXXOPTFLAGS="  -g -O3 -qhot=level=0 -qsimd=auto -qmaxmem=-1 -qstrict -qstrict_induction" -FOPTFLAGS=" -g -O3 -qhot=level=0 -qsimd=auto -qmaxmem=-1 -qstrict -qstrict_induction" LIBS="-lmpichcxx-gcc -lmpichf77-gcc -L/soft/compilers/ibmcmp-feb2015/vacpp/bg/12.1/bglib64 -libmc++ -L/soft/compilers/ibmcmp-feb2015/xlf/bg/14.1/bglib64 -lxlf90_r -lxlomp_ser -lxlfmath" PETSC_ARCH=arch-xl
-----------------------------------------
Libraries compiled on Sat Aug 20 04:19:47 2016 on vestalac2 
Machine characteristics: Linux-2.6.32-573.18.1.el6.ppc64-ppc64-with-redhat-6.7-Santiago
Using PETSc directory: /home/keceli/scratch2/petsc
Using PETSc arch: arch-xl
-----------------------------------------

Using C compiler: mpixlc_r   -g -O3 -qhot=level=0 -qsimd=auto -qmaxmem=-1 -qstrict -qstrict_induction  ${COPTFLAGS} ${CFLAGS}
Using Fortran compiler: mpixlf77_r -qnosave  -g -O3 -qhot=level=0 -qsimd=auto -qmaxmem=-1 -qstrict -qstrict_induction   ${FOPTFLAGS} ${FFLAGS} 
-----------------------------------------

Using include paths: -I/home/keceli/scratch2/petsc/arch-xl/include -I/home/keceli/scratch2/petsc/include -I/home/keceli/scratch2/petsc/include -I/home/keceli/scratch2/petsc/arch-xl/include -I/bgsys/drivers/V1R2M4/ppc64/comm/include -I/bgsys/drivers/V1R2M4/ppc64/comm/lib/xl -I/bgsys/drivers/V1R2M4/ppc64 -I/bgsys/drivers/V1R2M4/ppc64/comm/sys/include -I/bgsys/drivers/V1R2M4/ppc64/spi/include -I/bgsys/drivers/V1R2M4/ppc64/spi/include/kernel/cnk
-----------------------------------------

Using C linker: mpixlc_r
Using Fortran linker: mpixlf77_r -qnosave
Using libraries: -Wl,-rpath,/home/keceli/scratch2/petsc/arch-xl/lib -L/home/keceli/scratch2/petsc/arch-xl/lib -lpetsc -Wl,-rpath,/home/keceli/scratch2/petsc/arch-xl/lib -L/home/keceli/scratch2/petsc/arch-xl/lib -lcmumps -ldmumps -lsmumps -lzmumps -lmumps_common -lpord -Wl,-rpath,/soft/libraries/alcf/current/xl/SCALAPACK/lib -L/soft/libraries/alcf/current/xl/SCALAPACK/lib -lscalapack -L/soft/libraries/alcf/current/xl/LAPACK/lib -llapack -L/soft/libraries/alcf/current/xl/BLAS/lib -lblas -lparmetis -lmetis -lptesmumps -lptscotch -lptscotcherr -lscotch -lscotcherr -lrt -lm -lpthread -ldl -lmpichcxx-gcc -lmpichf77-gcc -L/soft/compilers/ibmcmp-feb2015/vacpp/bg/12.1/bglib64 -libmc++ -L/soft/compilers/ibmcmp-feb2015/xlf/bg/14.1/bglib64 -lxlf90_r -lxlomp_ser -lxlfmath
-----------------------------------------

