s.runSiesta: Submission time = 06s20m14h
s.runSiesta: Job name = qgr16bn7_7012_s32_p32_blues
s.runSiesta: Number of ranks = 32
s.runSiesta: Number of slices = 32
s.runSiesta: Exe file = /home/keceli/lib/siesta-qetsc/arch-gcc-opt-nomkl/siesta
s.runSiesta: PETSC DIR = /home/keceli/lib/petsc
s.runSiesta: SLEPC DIR = /home/keceli/lib/slepcfork
s.runSiesta: PETSC ARCH = arch-gcc-opt-nomkl
06s20m14h
-ioptbin 7 #Binning/slicing method (0: uniform, 1-7 nonuniform methods)
-ioptdensity 0 #
-ioptinertia 1 # Compute inertia to rearrange bins
-ioptleft 2  #
-ioptmat 0  # 1: Write matrices in binary format to disk
-writeeigs 1 # Write eigenvalues and binedged to output file
-roptbuffer 0.1 # Buffer used for end points
-roptdiff 0.1  # Therhold for inertia calculations based on difference between eigenvalues

#PETSc options
-mat_type mpisbaij
#-mat_block_size 46
#-mat_view ::ascii_info
#-mat_getrow_uppertriangular 1
-log_view
-memory_view
-malloc_log
#-malloc_info
#-start_in_debugger noxterm

#-mat_mumps_icntl_13 1 #turn off scaLAPACK for matrix inertia
#-mat_mumps_icntl_24 1 #null pivot row detection for matrix inertia
#-mat_mumps_icntl_23 0
#-mat_mumps_icntl_28 1
#-mat_mumps_icntl_28 2
#-mat_mumps_icntl_29 1 # ptscotch
#-mat_mumps_icntl_29 2 # parmetis
-mat_mumps_icntl_7 5

#-st_pc_factor_mat_solver_package mkl_pardiso

#SLEPc options
#-eps_view
#-eps_view_values
#-eps_krylovschur_partitions 1
#-eps_krylovschur_nev 120
-eps_interval -2.3,0.0
#-eps_tol  1.e-12
-eps_krylovschur_detect_zeros 0
#-eps_purify 1
SystemName          BNGr
SystemLabel         BNGr
NumberOfAtoms       512
NumberOfSpecies     3
#UseTreeTimer .true.
DM.MixingWeight 0.3
DM.NumberPulay 3

SolutionMethod  slepc1 #slepc0 for the older method
#SolutionMethod diagon
#BlockSize 182
#BlockSize 273
WriteDM .false.
WriteDM.NetCDF .false.
WriteDMHS.NetCDF .false.
LongOutput .false.
#MaxSCFIterations 1
#
%block ChemicalSpeciesLabel
 1  5  B
 2  6  C
 3  7  N
%endblock ChemicalSpeciesLabel

PAO.BasisType split
PAO.BasisSize DZP

LatticeConstant 1.00 Ang
%block LatticeVectors
19.7401069060      -34.1908681080        0.0000000000
19.7401069060       34.1908681080        0.0000000000
 0.0000000000        0.0000000000       15.0000000000
%endblock LatticeVectors

%block kgrid_Monkhorst_Pack
1 0 0 0.0
0 1 0 0.0
0 0 1 0.0
%endblock kgrid_Monkhorst_Pack

%block SuperCell
1 0 0
0 1 0
0 0 1
%endblock SuperCell

AtomicCoordinatesFormat NotScaledCartesianAng
%block AtomicCoordinatesAndAtomicSpecies < siesta_coords.txt

b440
b440
b440
b440
b440
b440
b440
b440
b440
b440
b440
b440
b440
b440
b440
b440
b440
b440
b440
b440
b440
b440
b440
b440
b440
b440
b440
b440
b440
b440
b440
b440
Siesta Version: siesta-trunk-492
Architecture  : x86_64-unknown-linux-gnu--unknown
Compiler flags: mpif90 -g -O3  -ffast-math -funroll-loops -I/home/keceli/lib/petsc/include -II/home/keceli/lib/petsc/arch-gcc-opt-nomkl/include -I/home/keceli/lib/slepcfork/arch-gcc-opt-nomkl/include -I/home/keceli/lib/slepcfork/include
PP flags      : -DMPI -DFC_HAVE_FLUSH -DFC_HAVE_ABORT 
PARALLEL version

* Running on   32 nodes in parallel
>> Start of run:   6-DEC-2016  14:20:22

                           ***********************       
                           *  WELCOME TO SIESTA  *       
                           ***********************       
WARNING: Siesta is reading its input from file INPUT_DEBUG

reinit: -----------------------------------------------------------------------
reinit: System Name: BNGr
reinit: -----------------------------------------------------------------------
reinit: System Label: BNGr                                                        
reinit: -----------------------------------------------------------------------

initatom: Reading input for the pseudopotentials and atomic orbitals ----------
Species number:   1 Atomic number:    5 Label: B
Species number:   2 Atomic number:    6 Label: C
Species number:   3 Atomic number:    7 Label: N

Ground state valence configuration:   2s02  2p01
Reading pseudopotential information in formatted form from B.psf

Valence configuration for pseudopotential generation:
2s( 2.00) rc: 1.74
2p( 1.00) rc: 1.74
3d( 0.00) rc: 1.74
4f( 0.00) rc: 1.74
Ground state valence configuration:   2s02  2p02
Reading pseudopotential information in formatted form from C.psf

Valence configuration for pseudopotential generation:
2s( 2.00) rc: 1.54
2p( 2.00) rc: 1.54
3d( 0.00) rc: 1.54
4f( 0.00) rc: 1.54
Ground state valence configuration:   2s02  2p03
Reading pseudopotential information in formatted form from N.psf

Valence configuration for pseudopotential generation:
2s( 2.00) rc: 1.48
2p( 3.00) rc: 1.48
3d( 0.00) rc: 1.48
4f( 0.00) rc: 1.48
For B, standard SIESTA heuristics set lmxkb to 3
 (one more than the basis l, including polarization orbitals).
Use PS.lmax or PS.KBprojectors blocks to override.
For C, standard SIESTA heuristics set lmxkb to 3
 (one more than the basis l, including polarization orbitals).
Use PS.lmax or PS.KBprojectors blocks to override.
For N, standard SIESTA heuristics set lmxkb to 3
 (one more than the basis l, including polarization orbitals).
Use PS.lmax or PS.KBprojectors blocks to override.

<basis_specs>
===============================================================================
B                    Z=   5    Mass=  10.810        Charge= 0.17977+309
Lmxo=1 Lmxkb= 3    BasisType=split      Semic=F
L=0  Nsemic=0  Cnfigmx=2
          n=1  nzeta=2  polorb=0
            splnorm:   0.15000    
               vcte:    0.0000    
               rinn:    0.0000    
               qcoe:    0.0000    
               qyuk:    0.0000    
               qwid:   0.10000E-01
                rcs:    0.0000      0.0000    
            lambdas:    1.0000      1.0000    
L=1  Nsemic=0  Cnfigmx=2
          n=1  nzeta=2  polorb=1
            splnorm:   0.15000    
               vcte:    0.0000    
               rinn:    0.0000    
               qcoe:    0.0000    
               qyuk:    0.0000    
               qwid:   0.10000E-01
                rcs:    0.0000      0.0000    
            lambdas:    1.0000      1.0000    
-------------------------------------------------------------------------------
L=0  Nkbl=1  erefs: 0.17977+309
L=1  Nkbl=1  erefs: 0.17977+309
L=2  Nkbl=1  erefs: 0.17977+309
L=3  Nkbl=1  erefs: 0.17977+309
===============================================================================
</basis_specs>

atom: Called for B                     (Z =   5)

read_vps: Pseudopotential generation method:
read_vps: ATM3      Troullier-Martins                       
Total valence charge:    3.00000

read_vps: Pseudopotential includes a core correction:
read_vps: Pseudo-core for xc-correction

xc_check: Exchange-correlation functional:
xc_check: Ceperley-Alder
V l=0 = -2*Zval/r beyond r=  1.7165
V l=1 = -2*Zval/r beyond r=  1.7165
V l=2 = -2*Zval/r beyond r=  1.7165
V l=3 = -2*Zval/r beyond r=  1.6951
All V_l potentials equal beyond r=  1.7165
This should be close to max(r_c) in ps generation
All pots = -2*Zval/r beyond r=  1.7165

VLOCAL1: 99.0% of the norm of Vloc inside     14.733 Ry
VLOCAL1: 99.9% of the norm of Vloc inside     33.577 Ry
atom: Maximum radius for 4*pi*r*r*local-pseudopot. charge    2.04484
atom: Maximum radius for r*vlocal+2*Zval:    1.75994
GHOST: No ghost state for L =  0
GHOST: No ghost state for L =  1
GHOST: No ghost state for L =  2
GHOST: No ghost state for L =  3

KBgen: Kleinman-Bylander projectors: 
   l= 0   rc=  1.897051   el= -0.689821   Ekb=  4.267659   kbcos=  0.294941
   l= 1   rc=  1.920920   el= -0.273582   Ekb= -2.493518   kbcos= -0.316494
   l= 2   rc=  2.044840   el=  0.002410   Ekb= -0.642570   kbcos= -0.014732
   l= 3   rc=  2.149707   el=  0.003543   Ekb= -0.260486   kbcos= -0.002341

KBgen: Total number of  Kleinman-Bylander projectors:   16
atom: -------------------------------------------------------------------------

atom: SANKEY-TYPE ORBITALS:
atom: Selected multiple-zeta basis: split     

SPLIT: Orbitals with angular momentum L= 0

SPLIT: Basis orbitals for state 2s

SPLIT: PAO cut-off radius determined from an
SPLIT: energy shift=  0.020000 Ry

   izeta = 1
                 lambda =    1.000000
                     rc =    4.906010
                 energy =   -0.672079
                kinetic =    0.600553
    potential(screened) =   -1.272632
       potential(ionic) =   -3.301886

   izeta = 2
                 rmatch =    4.170113
              splitnorm =    0.150000
                 energy =   -0.581071
                kinetic =    0.883210
    potential(screened) =   -1.464280
       potential(ionic) =   -3.607314

SPLIT: Orbitals with angular momentum L= 1

SPLIT: Basis orbitals for state 2p

SPLIT: PAO cut-off radius determined from an
SPLIT: energy shift=  0.020000 Ry

   izeta = 1
                 lambda =    1.000000
                     rc =    5.700051
                 energy =   -0.254269
                kinetic =    1.609303
    potential(screened) =   -1.863571
       potential(ionic) =   -3.822590

   izeta = 2
                 rmatch =    4.275693
              splitnorm =    0.150000
                 energy =   -0.140145
                kinetic =    2.432023
    potential(screened) =   -2.572168
       potential(ionic) =   -4.719137

POLgen: Perturbative polarization orbital with L=  2

POLgen: Polarization orbital for state 2p

   izeta = 1
                     rc =    5.700051
                 energy =    0.829041
                kinetic =    1.746766
    potential(screened) =   -0.917724
       potential(ionic) =   -2.618902
atom: Total number of Sankey-type orbitals: 13

atm_pop: Valence configuration (for local Pseudopot. screening):
 2s( 2.00)                                                            
 2p( 1.00)                                                            
Vna: chval, zval:    3.00000   3.00000

Vna:  Cut-off radius for the neutral-atom potential:   5.700051
comcore: Pseudo-core radius Rcore=  2.122997

atom: _________________________________________________________________________

<basis_specs>
===============================================================================
C                    Z=   6    Mass=  12.010        Charge= 0.17977+309
Lmxo=1 Lmxkb= 3    BasisType=split      Semic=F
L=0  Nsemic=0  Cnfigmx=2
          n=1  nzeta=2  polorb=0
            splnorm:   0.15000    
               vcte:    0.0000    
               rinn:    0.0000    
               qcoe:    0.0000    
               qyuk:    0.0000    
               qwid:   0.10000E-01
                rcs:    0.0000      0.0000    
            lambdas:    1.0000      1.0000    
L=1  Nsemic=0  Cnfigmx=2
          n=1  nzeta=2  polorb=1
            splnorm:   0.15000    
               vcte:    0.0000    
               rinn:    0.0000    
               qcoe:    0.0000    
               qyuk:    0.0000    
               qwid:   0.10000E-01
                rcs:    0.0000      0.0000    
            lambdas:    1.0000      1.0000    
-------------------------------------------------------------------------------
L=0  Nkbl=1  erefs: 0.17977+309
L=1  Nkbl=1  erefs: 0.17977+309
L=2  Nkbl=1  erefs: 0.17977+309
L=3  Nkbl=1  erefs: 0.17977+309
===============================================================================
</basis_specs>

atom: Called for C                     (Z =   6)

read_vps: Pseudopotential generation method:
read_vps: ATM3      Troullier-Martins                       
Total valence charge:    4.00000

xc_check: Exchange-correlation functional:
xc_check: Ceperley-Alder
V l=0 = -2*Zval/r beyond r=  1.5227
V l=1 = -2*Zval/r beyond r=  1.5227
V l=2 = -2*Zval/r beyond r=  1.5227
V l=3 = -2*Zval/r beyond r=  1.5038
All V_l potentials equal beyond r=  1.5227
This should be close to max(r_c) in ps generation
All pots = -2*Zval/r beyond r=  1.5227

VLOCAL1: 99.0% of the norm of Vloc inside     18.722 Ry
VLOCAL1: 99.9% of the norm of Vloc inside     42.668 Ry
atom: Maximum radius for 4*pi*r*r*local-pseudopot. charge    1.83678
atom: Maximum radius for r*vlocal+2*Zval:    1.58088
GHOST: No ghost state for L =  0
GHOST: No ghost state for L =  1
GHOST: No ghost state for L =  2
GHOST: No ghost state for L =  3

KBgen: Kleinman-Bylander projectors: 
   l= 0   rc=  1.747182   el= -1.001948   Ekb=  4.950286   kbcos=  0.319819
   l= 1   rc=  1.747182   el= -0.398598   Ekb= -4.108613   kbcos= -0.367053
   l= 2   rc=  1.930978   el=  0.002326   Ekb= -1.042946   kbcos= -0.009366
   l= 3   rc=  2.055542   el=  0.003420   Ekb= -0.408633   kbcos= -0.001262

KBgen: Total number of  Kleinman-Bylander projectors:   16
atom: -------------------------------------------------------------------------

atom: SANKEY-TYPE ORBITALS:
atom: Selected multiple-zeta basis: split     

SPLIT: Orbitals with angular momentum L= 0

SPLIT: Basis orbitals for state 2s

SPLIT: PAO cut-off radius determined from an
SPLIT: energy shift=  0.020000 Ry

   izeta = 1
                 lambda =    1.000000
                     rc =    4.191849
                 energy =   -0.983897
                kinetic =    0.880927
    potential(screened) =   -1.864824
       potential(ionic) =   -5.475687

   izeta = 2
                 rmatch =    3.431921
              splitnorm =    0.150000
                 energy =   -0.853083
                kinetic =    1.298222
    potential(screened) =   -2.151305
       potential(ionic) =   -5.995890

SPLIT: Orbitals with angular momentum L= 1

SPLIT: Basis orbitals for state 2p

SPLIT: PAO cut-off radius determined from an
SPLIT: energy shift=  0.020000 Ry

   izeta = 1
                 lambda =    1.000000
                     rc =    4.870301
                 energy =   -0.379093
                kinetic =    2.540023
    potential(screened) =   -2.919116
       potential(ionic) =   -6.427960

   izeta = 2
                 rmatch =    3.475094
              splitnorm =    0.150000
                 energy =   -0.215057
                kinetic =    3.814571
    potential(screened) =   -4.029628
       potential(ionic) =   -7.920250

POLgen: Perturbative polarization orbital with L=  2

POLgen: Polarization orbital for state 2p

   izeta = 1
                     rc =    4.870301
                 energy =    1.280996
                kinetic =    2.631310
    potential(screened) =   -1.350314
       potential(ionic) =   -4.295640
atom: Total number of Sankey-type orbitals: 13

atm_pop: Valence configuration (for local Pseudopot. screening):
 2s( 2.00)                                                            
 2p( 2.00)                                                            
Vna: chval, zval:    4.00000   4.00000

Vna:  Cut-off radius for the neutral-atom potential:   4.870301

atom: _________________________________________________________________________

<basis_specs>
===============================================================================
N                    Z=   7    Mass=  14.010        Charge= 0.17977+309
Lmxo=1 Lmxkb= 3    BasisType=split      Semic=F
L=0  Nsemic=0  Cnfigmx=2
          n=1  nzeta=2  polorb=0
            splnorm:   0.15000    
               vcte:    0.0000    
               rinn:    0.0000    
               qcoe:    0.0000    
               qyuk:    0.0000    
               qwid:   0.10000E-01
                rcs:    0.0000      0.0000    
            lambdas:    1.0000      1.0000    
L=1  Nsemic=0  Cnfigmx=2
          n=1  nzeta=2  polorb=1
            splnorm:   0.15000    
               vcte:    0.0000    
               rinn:    0.0000    
               qcoe:    0.0000    
               qyuk:    0.0000    
               qwid:   0.10000E-01
                rcs:    0.0000      0.0000    
            lambdas:    1.0000      1.0000    
-------------------------------------------------------------------------------
L=0  Nkbl=1  erefs: 0.17977+309
L=1  Nkbl=1  erefs: 0.17977+309
L=2  Nkbl=1  erefs: 0.17977+309
L=3  Nkbl=1  erefs: 0.17977+309
===============================================================================
</basis_specs>

atom: Called for N                     (Z =   7)

read_vps: Pseudopotential generation method:
read_vps: ATM3      Troullier-Martins                       
Total valence charge:    5.00000

xc_check: Exchange-correlation functional:
xc_check: Ceperley-Alder
V l=0 = -2*Zval/r beyond r=  1.4606
V l=1 = -2*Zval/r beyond r=  1.4606
V l=2 = -2*Zval/r beyond r=  1.4606
V l=3 = -2*Zval/r beyond r=  1.4606
All V_l potentials equal beyond r=  1.4606
This should be close to max(r_c) in ps generation
All pots = -2*Zval/r beyond r=  1.4606

VLOCAL1: 99.0% of the norm of Vloc inside     20.347 Ry
VLOCAL1: 99.9% of the norm of Vloc inside     46.372 Ry
atom: Maximum radius for 4*pi*r*r*local-pseudopot. charge    1.76189
atom: Maximum radius for r*vlocal+2*Zval:    1.53550
GHOST: No ghost state for L =  0
GHOST: No ghost state for L =  1
GHOST: No ghost state for L =  2
GHOST: No ghost state for L =  3

KBgen: Kleinman-Bylander projectors: 
   l= 0   rc=  1.634559   el= -1.352239   Ekb=  4.901185   kbcos=  0.337501
   l= 1   rc=  1.614250   el= -0.532623   Ekb= -5.544141   kbcos= -0.433040
   l= 2   rc=  1.740002   el=  0.002346   Ekb= -1.331777   kbcos= -0.007563
   l= 3   rc=  1.806505   el=  0.003449   Ekb= -0.515466   kbcos= -0.000994

KBgen: Total number of  Kleinman-Bylander projectors:   16
atom: -------------------------------------------------------------------------

atom: SANKEY-TYPE ORBITALS:
atom: Selected multiple-zeta basis: split     

SPLIT: Orbitals with angular momentum L= 0

SPLIT: Basis orbitals for state 2s

SPLIT: PAO cut-off radius determined from an
SPLIT: energy shift=  0.020000 Ry

   izeta = 1
                 lambda =    1.000000
                     rc =    3.683980
                 energy =   -1.333780
                kinetic =    1.203249
    potential(screened) =   -2.537029
       potential(ionic) =   -8.126274

   izeta = 2
                 rmatch =    2.905100
              splitnorm =    0.150000
                 energy =   -1.138702
                kinetic =    1.810192
    potential(screened) =   -2.948894
       potential(ionic) =   -8.945013

SPLIT: Orbitals with angular momentum L= 1

SPLIT: Basis orbitals for state 2p

SPLIT: PAO cut-off radius determined from an
SPLIT: energy shift=  0.020000 Ry

   izeta = 1
                 lambda =    1.000000
                     rc =    4.280232
                 energy =   -0.512466
                kinetic =    3.598849
    potential(screened) =   -4.111315
       potential(ionic) =   -9.550563

   izeta = 2
                 rmatch =    2.941647
              splitnorm =    0.150000
                 energy =   -0.292244
                kinetic =    5.357522
    potential(screened) =   -5.649767
       potential(ionic) =  -11.693436

POLgen: Perturbative polarization orbital with L=  2

POLgen: Polarization orbital for state 2p

   izeta = 1
                     rc =    4.280232
                 energy =    1.826084
                kinetic =    3.687342
    potential(screened) =   -1.861257
       potential(ionic) =   -6.363951
atom: Total number of Sankey-type orbitals: 13

atm_pop: Valence configuration (for local Pseudopot. screening):
 2s( 2.00)                                                            
 2p( 3.00)                                                            
Vna: chval, zval:    5.00000   5.00000

Vna:  Cut-off radius for the neutral-atom potential:   4.280232

atom: _________________________________________________________________________

prinput: Basis input ----------------------------------------------------------

PAO.BasisType split     

%block ChemicalSpeciesLabel
    1    5 B                       # Species index, atomic number, species label
    2    6 C                       # Species index, atomic number, species label
    3    7 N                       # Species index, atomic number, species label
%endblock ChemicalSpeciesLabel

%block PAO.Basis                 # Define Basis set
B                     2                    # Species label, number of l-shells
 n=2   0   2                         # n, l, Nzeta 
   4.906      4.170   
   1.000      1.000   
 n=2   1   2 P   1                   # n, l, Nzeta, Polarization, NzetaPol
   5.700      4.276   
   1.000      1.000   
C                     2                    # Species label, number of l-shells
 n=2   0   2                         # n, l, Nzeta 
   4.192      3.432   
   1.000      1.000   
 n=2   1   2 P   1                   # n, l, Nzeta, Polarization, NzetaPol
   4.870      3.475   
   1.000      1.000   
N                     2                    # Species label, number of l-shells
 n=2   0   2                         # n, l, Nzeta 
   3.684      2.905   
   1.000      1.000   
 n=2   1   2 P   1                   # n, l, Nzeta, Polarization, NzetaPol
   4.280      2.942   
   1.000      1.000   
%endblock PAO.Basis

prinput: ----------------------------------------------------------------------

coor:   Atomic-coordinates input format  =     Cartesian coordinates
coor:                                          (in Angstroms)

siesta: Atomic coordinates (Bohr) and species
siesta:      0.00000   0.00000   0.00000  2        1
siesta:      2.33146   4.03821   0.00000  2        2
siesta:      4.66293   8.07643   0.00000  2        3
siesta:      6.99439  12.11464   0.00000  2        4
siesta:      9.32585  16.15285   0.00000  2        5
siesta:     11.65732  20.19106   0.00000  2        6
siesta:     13.98878  24.22928   0.00000  2        7
siesta:     16.32024  28.26749   0.00000  2        8
siesta:     18.65171  32.30570   0.00000  2        9
siesta:     20.98317  36.34391   0.00000  2       10
siesta:     23.31463  40.38213   0.00000  2       11
siesta:     25.64609  44.42034   0.00000  2       12
siesta:     27.97756  48.45855   0.00000  2       13
siesta:     30.30902  52.49676   0.00000  2       14
siesta:     32.64048  56.53498   0.00000  2       15
siesta:     34.97195  60.57319   0.00000  2       16
siesta:      2.33146  -4.03821   0.00000  2       17
siesta:      4.66293   0.00000   0.00000  2       18
siesta:      6.99439   4.03821   0.00000  2       19
siesta:      9.32585   8.07643   0.00000  2       20
siesta:     11.65732  12.11464   0.00000  2       21
siesta:     13.98878  16.15285   0.00000  2       22
siesta:     16.32024  20.19106   0.00000  2       23
siesta:     18.65171  24.22928   0.00000  2       24
siesta:     20.98317  28.26749   0.00000  2       25
siesta:     23.31463  32.30570   0.00000  2       26
siesta:     25.64609  36.34391   0.00000  2       27
siesta:     27.97756  40.38213   0.00000  2       28
siesta:     30.30902  44.42034   0.00000  2       29
siesta:     32.64048  48.45855   0.00000  2       30
siesta:     34.97195  52.49676   0.00000  2       31
siesta:     37.30341  56.53498   0.00000  2       32
siesta:      4.66293  -8.07643   0.00000  2       33
siesta:      6.99439  -4.03821   0.00000  2       34
siesta:      9.32585   0.00000   0.00000  2       35
siesta:     11.65732   4.03821   0.00000  2       36
siesta:     13.98878   8.07643   0.00000  2       37
siesta:     16.32024  12.11464   0.00000  2       38
siesta:     18.65171  16.15285   0.00000  2       39
siesta:     20.98317  20.19106   0.00000  2       40
siesta:     23.31463  24.22928   0.00000  2       41
siesta:     25.64609  28.26749   0.00000  2       42
siesta:     27.97756  32.30570   0.00000  2       43
siesta:     30.30902  36.34391   0.00000  2       44
siesta:     32.64048  40.38213   0.00000  2       45
siesta:     34.97195  44.42034   0.00000  2       46
siesta:     37.30341  48.45855   0.00000  2       47
siesta:     39.63487  52.49676   0.00000  2       48
siesta:      6.99439 -12.11464   0.00000  2       49
siesta:      9.32585  -8.07643   0.00000  2       50
siesta:     11.65732  -4.03821   0.00000  2       51
siesta:     13.98878   0.00000   0.00000  2       52
siesta:     16.32024   4.03821   0.00000  2       53
siesta:     18.65171   8.07643   0.00000  2       54
siesta:     20.98317  12.11464   0.00000  2       55
siesta:     23.31463  16.15285   0.00000  2       56
siesta:     25.64609  20.19106   0.00000  2       57
siesta:     27.97756  24.22928   0.00000  2       58
siesta:     30.30902  28.26749   0.00000  2       59
siesta:     32.64048  32.30570   0.00000  2       60
siesta:     34.97195  36.34391   0.00000  2       61
siesta:     37.30341  40.38213   0.00000  2       62
siesta:     39.63487  44.42034   0.00000  2       63
siesta:     41.96634  48.45855   0.00000  2       64
siesta:      9.32585 -16.15285   0.00000  2       65
siesta:     11.65732 -12.11464   0.00000  2       66
siesta:     13.98878  -8.07643   0.00000  2       67
siesta:     16.32024  -4.03821   0.00000  2       68
siesta:     18.65171   0.00000   0.00000  2       69
siesta:     20.98317   4.03821   0.00000  2       70
siesta:     23.31463   8.07643   0.00000  2       71
siesta:     25.64609  12.11464   0.00000  2       72
siesta:     27.97756  16.15285   0.00000  2       73
siesta:     30.30902  20.19106   0.00000  2       74
siesta:     32.64048  24.22928   0.00000  2       75
siesta:     34.97195  28.26749   0.00000  2       76
siesta:     37.30341  32.30570   0.00000  2       77
siesta:     39.63487  36.34391   0.00000  2       78
siesta:     41.96634  40.38213   0.00000  2       79
siesta:     44.29780  44.42034   0.00000  2       80
siesta:     11.65732 -20.19106   0.00000  2       81
siesta:     13.98878 -16.15285   0.00000  2       82
siesta:     16.32024 -12.11464   0.00000  2       83
siesta:     18.65171  -8.07643   0.00000  2       84
siesta:     20.98317  -4.03821   0.00000  2       85
siesta:     23.31463   0.00000   0.00000  2       86
siesta:     25.64609   4.03821   0.00000  1       87
siesta:     27.97756   8.07643   0.00000  1       88
siesta:     30.30902  12.11464   0.00000  2       89
siesta:     32.64048  16.15285   0.00000  2       90
siesta:     34.97195  20.19106   0.00000  2       91
siesta:     37.30341  24.22928   0.00000  2       92
siesta:     39.63487  28.26749   0.00000  2       93
siesta:     41.96634  32.30570   0.00000  2       94
siesta:     44.29780  36.34391   0.00000  2       95
siesta:     46.62926  40.38213   0.00000  2       96
siesta:     13.98878 -24.22928   0.00000  2       97
siesta:     16.32024 -20.19106   0.00000  2       98
siesta:     18.65171 -16.15285   0.00000  2       99
siesta:     20.98317 -12.11464   0.00000  2      100
siesta:     23.31463  -8.07643   0.00000  2      101
siesta:     25.64609  -4.03821   0.00000  1      102
siesta:     27.97756   0.00000   0.00000  1      103
siesta:     30.30902   4.03821   0.00000  1      104
siesta:     32.64048   8.07643   0.00000  1      105
siesta:     34.97195  12.11464   0.00000  1      106
siesta:     37.30341  16.15285   0.00000  2      107
siesta:     39.63487  20.19106   0.00000  2      108
siesta:     41.96634  24.22928   0.00000  2      109
siesta:     44.29780  28.26749   0.00000  2      110
siesta:     46.62926  32.30570   0.00000  2      111
siesta:     48.96073  36.34391   0.00000  2      112
siesta:     16.32024 -28.26749   0.00000  2      113
siesta:     18.65171 -24.22928   0.00000  2      114
siesta:     20.98317 -20.19106   0.00000  2      115
siesta:     23.31463 -16.15285   0.00000  2      116
siesta:     25.64609 -12.11464   0.00000  2      117
siesta:     27.97756  -8.07643   0.00000  1      118
siesta:     30.30902  -4.03821   0.00000  1      119
siesta:     32.64048   0.00000   0.00000  1      120
siesta:     34.97195   4.03821   0.00000  1      121
siesta:     37.30341   8.07643   0.00000  1      122
siesta:     39.63487  12.11464   0.00000  1      123
siesta:     41.96634  16.15285   0.00000  2      124
siesta:     44.29780  20.19106   0.00000  2      125
siesta:     46.62926  24.22928   0.00000  2      126
siesta:     48.96073  28.26749   0.00000  2      127
siesta:     51.29219  32.30570   0.00000  2      128
siesta:     18.65171 -32.30570   0.00000  2      129
siesta:     20.98317 -28.26749   0.00000  2      130
siesta:     23.31463 -24.22928   0.00000  2      131
siesta:     25.64609 -20.19106   0.00000  2      132
siesta:     27.97756 -16.15285   0.00000  2      133
siesta:     30.30902 -12.11464   0.00000  2      134
siesta:     32.64048  -8.07643   0.00000  1      135
siesta:     34.97195  -4.03821   0.00000  1      136
siesta:     37.30341   0.00000   0.00000  1      137
siesta:     39.63487   4.03821   0.00000  1      138
siesta:     41.96634   8.07643   0.00000  1      139
siesta:     44.29780  12.11464   0.00000  2      140
siesta:     46.62926  16.15285   0.00000  2      141
siesta:     48.96073  20.19106   0.00000  2      142
siesta:     51.29219  24.22928   0.00000  2      143
siesta:     53.62365  28.26749   0.00000  2      144
siesta:     20.98317 -36.34391   0.00000  2      145
siesta:     23.31463 -32.30570   0.00000  2      146
siesta:     25.64609 -28.26749   0.00000  2      147
siesta:     27.97756 -24.22928   0.00000  2      148
siesta:     30.30902 -20.19106   0.00000  2      149
siesta:     32.64048 -16.15285   0.00000  2      150
siesta:     34.97195 -12.11464   0.00000  1      151
siesta:     37.30341  -8.07643   0.00000  1      152
siesta:     39.63487  -4.03821   0.00000  1      153
siesta:     41.96634   0.00000   0.00000  1      154
siesta:     44.29780   4.03821   0.00000  1      155
siesta:     46.62926   8.07643   0.00000  1      156
siesta:     48.96073  12.11464   0.00000  2      157
siesta:     51.29219  16.15285   0.00000  2      158
siesta:     53.62365  20.19106   0.00000  2      159
siesta:     55.95512  24.22928   0.00000  2      160
siesta:     23.31463 -40.38213   0.00000  2      161
siesta:     25.64609 -36.34391   0.00000  2      162
siesta:     27.97756 -32.30570   0.00000  2      163
siesta:     30.30902 -28.26749   0.00000  2      164
siesta:     32.64048 -24.22928   0.00000  2      165
siesta:     34.97195 -20.19106   0.00000  2      166
siesta:     37.30341 -16.15285   0.00000  2      167
siesta:     39.63487 -12.11464   0.00000  1      168
siesta:     41.96634  -8.07643   0.00000  1      169
siesta:     44.29780  -4.03821   0.00000  1      170
siesta:     46.62926   0.00000   0.00000  1      171
siesta:     48.96073   4.03821   0.00000  1      172
siesta:     51.29219   8.07643   0.00000  2      173
siesta:     53.62365  12.11464   0.00000  2      174
siesta:     55.95512  16.15285   0.00000  2      175
siesta:     58.28658  20.19106   0.00000  2      176
siesta:     25.64609 -44.42034   0.00000  2      177
siesta:     27.97756 -40.38213   0.00000  2      178
siesta:     30.30902 -36.34391   0.00000  2      179
siesta:     32.64048 -32.30570   0.00000  2      180
siesta:     34.97195 -28.26749   0.00000  2      181
siesta:     37.30341 -24.22928   0.00000  2      182
siesta:     39.63487 -20.19106   0.00000  2      183
siesta:     41.96634 -16.15285   0.00000  2      184
siesta:     44.29780 -12.11464   0.00000  2      185
siesta:     46.62926  -8.07643   0.00000  1      186
siesta:     48.96073  -4.03821   0.00000  1      187
siesta:     51.29219   0.00000   0.00000  2      188
siesta:     53.62365   4.03821   0.00000  2      189
siesta:     55.95512   8.07643   0.00000  2      190
siesta:     58.28658  12.11464   0.00000  2      191
siesta:     60.61804  16.15285   0.00000  2      192
siesta:     27.97756 -48.45855   0.00000  2      193
siesta:     30.30902 -44.42034   0.00000  2      194
siesta:     32.64048 -40.38213   0.00000  2      195
siesta:     34.97195 -36.34391   0.00000  2      196
siesta:     37.30341 -32.30570   0.00000  2      197
siesta:     39.63487 -28.26749   0.00000  2      198
siesta:     41.96634 -24.22928   0.00000  2      199
siesta:     44.29780 -20.19106   0.00000  2      200
siesta:     46.62926 -16.15285   0.00000  2      201
siesta:     48.96073 -12.11464   0.00000  2      202
siesta:     51.29219  -8.07643   0.00000  2      203
siesta:     53.62365  -4.03821   0.00000  2      204
siesta:     55.95512   0.00000   0.00000  2      205
siesta:     58.28658   4.03821   0.00000  2      206
siesta:     60.61804   8.07643   0.00000  2      207
siesta:     62.94951  12.11464   0.00000  2      208
siesta:     30.30902 -52.49676   0.00000  2      209
siesta:     32.64048 -48.45855   0.00000  2      210
siesta:     34.97195 -44.42034   0.00000  2      211
siesta:     37.30341 -40.38213   0.00000  2      212
siesta:     39.63487 -36.34391   0.00000  2      213
siesta:     41.96634 -32.30570   0.00000  2      214
siesta:     44.29780 -28.26749   0.00000  2      215
siesta:     46.62926 -24.22928   0.00000  2      216
siesta:     48.96073 -20.19106   0.00000  2      217
siesta:     51.29219 -16.15285   0.00000  2      218
siesta:     53.62365 -12.11464   0.00000  2      219
siesta:     55.95512  -8.07643   0.00000  2      220
siesta:     58.28658  -4.03821   0.00000  2      221
siesta:     60.61804   0.00000   0.00000  2      222
siesta:     62.94951   4.03821   0.00000  2      223
siesta:     65.28097   8.07643   0.00000  2      224
siesta:     32.64048 -56.53498   0.00000  2      225
siesta:     34.97195 -52.49676   0.00000  2      226
siesta:     37.30341 -48.45855   0.00000  2      227
siesta:     39.63487 -44.42034   0.00000  2      228
siesta:     41.96634 -40.38213   0.00000  2      229
siesta:     44.29780 -36.34391   0.00000  2      230
siesta:     46.62926 -32.30570   0.00000  2      231
siesta:     48.96073 -28.26749   0.00000  2      232
siesta:     51.29219 -24.22928   0.00000  2      233
siesta:     53.62365 -20.19106   0.00000  2      234
siesta:     55.95512 -16.15285   0.00000  2      235
siesta:     58.28658 -12.11464   0.00000  2      236
siesta:     60.61804  -8.07643   0.00000  2      237
siesta:     62.94951  -4.03821   0.00000  2      238
siesta:     65.28097   0.00000   0.00000  2      239
siesta:     67.61243   4.03821   0.00000  2      240
siesta:     34.97195 -60.57319   0.00000  2      241
siesta:     37.30341 -56.53498   0.00000  2      242
siesta:     39.63487 -52.49676   0.00000  2      243
siesta:     41.96634 -48.45855   0.00000  2      244
siesta:     44.29780 -44.42034   0.00000  2      245
siesta:     46.62926 -40.38213   0.00000  2      246
siesta:     48.96073 -36.34391   0.00000  2      247
siesta:     51.29219 -32.30570   0.00000  2      248
siesta:     53.62365 -28.26749   0.00000  2      249
siesta:     55.95512 -24.22928   0.00000  2      250
siesta:     58.28658 -20.19106   0.00000  2      251
siesta:     60.61804 -16.15285   0.00000  2      252
siesta:     62.94951 -12.11464   0.00000  2      253
siesta:     65.28097  -8.07643   0.00000  2      254
siesta:     67.61243  -4.03821   0.00000  2      255
siesta:     69.94389   0.00000   0.00000  2      256
siesta:      2.33146   1.34607   0.00000  2      257
siesta:      4.66293   5.38428   0.00000  2      258
siesta:      6.99439   9.42250   0.00000  2      259
siesta:      9.32585  13.46071   0.00000  2      260
siesta:     11.65732  17.49892   0.00000  2      261
siesta:     13.98878  21.53713   0.00000  2      262
siesta:     16.32024  25.57535   0.00000  2      263
siesta:     18.65171  29.61356   0.00000  2      264
siesta:     20.98317  33.65177   0.00000  2      265
siesta:     23.31463  37.68998   0.00000  2      266
siesta:     25.64609  41.72820   0.00000  2      267
siesta:     27.97756  45.76641   0.00000  2      268
siesta:     30.30902  49.80462   0.00000  2      269
siesta:     32.64048  53.84284   0.00000  2      270
siesta:     34.97195  57.88105   0.00000  2      271
siesta:     37.30341  61.91926   0.00000  2      272
siesta:      4.66293  -2.69214   0.00000  2      273
siesta:      6.99439   1.34607   0.00000  2      274
siesta:      9.32585   5.38428   0.00000  2      275
siesta:     11.65732   9.42250   0.00000  2      276
siesta:     13.98878  13.46071   0.00000  2      277
siesta:     16.32024  17.49892   0.00000  2      278
siesta:     18.65171  21.53713   0.00000  2      279
siesta:     20.98317  25.57535   0.00000  2      280
siesta:     23.31463  29.61356   0.00000  2      281
siesta:     25.64609  33.65177   0.00000  2      282
siesta:     27.97756  37.68998   0.00000  2      283
siesta:     30.30902  41.72820   0.00000  2      284
siesta:     32.64048  45.76641   0.00000  2      285
siesta:     34.97195  49.80462   0.00000  2      286
siesta:     37.30341  53.84284   0.00000  2      287
siesta:     39.63487  57.88105   0.00000  2      288
siesta:      6.99439  -6.73035   0.00000  2      289
siesta:      9.32585  -2.69214   0.00000  2      290
siesta:     11.65732   1.34607   0.00000  2      291
siesta:     13.98878   5.38428   0.00000  2      292
siesta:     16.32024   9.42250   0.00000  2      293
siesta:     18.65171  13.46071   0.00000  2      294
siesta:     20.98317  17.49892   0.00000  2      295
siesta:     23.31463  21.53713   0.00000  2      296
siesta:     25.64609  25.57535   0.00000  2      297
siesta:     27.97756  29.61356   0.00000  2      298
siesta:     30.30902  33.65177   0.00000  2      299
siesta:     32.64048  37.68998   0.00000  2      300
siesta:     34.97195  41.72820   0.00000  2      301
siesta:     37.30341  45.76641   0.00000  2      302
siesta:     39.63487  49.80462   0.00000  2      303
siesta:     41.96634  53.84284   0.00000  2      304
siesta:      9.32585 -10.76857   0.00000  2      305
siesta:     11.65732  -6.73035   0.00000  2      306
siesta:     13.98878  -2.69214   0.00000  2      307
siesta:     16.32024   1.34607   0.00000  2      308
siesta:     18.65171   5.38428   0.00000  2      309
siesta:     20.98317   9.42250   0.00000  2      310
siesta:     23.31463  13.46071   0.00000  2      311
siesta:     25.64609  17.49892   0.00000  2      312
siesta:     27.97756  21.53713   0.00000  2      313
siesta:     30.30902  25.57535   0.00000  2      314
siesta:     32.64048  29.61356   0.00000  2      315
siesta:     34.97195  33.65177   0.00000  2      316
siesta:     37.30341  37.68998   0.00000  2      317
siesta:     39.63487  41.72820   0.00000  2      318
siesta:     41.96634  45.76641   0.00000  2      319
siesta:     44.29780  49.80462   0.00000  2      320
siesta:     11.65732 -14.80678   0.00000  2      321
siesta:     13.98878 -10.76857   0.00000  2      322
siesta:     16.32024  -6.73035   0.00000  2      323
siesta:     18.65171  -2.69214   0.00000  2      324
siesta:     20.98317   1.34607   0.00000  2      325
siesta:     23.31463   5.38428   0.00000  2      326
siesta:     25.64609   9.42250   0.00000  2      327
siesta:     27.97756  13.46071   0.00000  2      328
siesta:     30.30902  17.49892   0.00000  2      329
siesta:     32.64048  21.53713   0.00000  2      330
siesta:     34.97195  25.57535   0.00000  2      331
siesta:     37.30341  29.61356   0.00000  2      332
siesta:     39.63487  33.65177   0.00000  2      333
siesta:     41.96634  37.68998   0.00000  2      334
siesta:     44.29780  41.72820   0.00000  2      335
siesta:     46.62926  45.76641   0.00000  2      336
siesta:     13.98878 -18.84499   0.00000  2      337
siesta:     16.32024 -14.80678   0.00000  2      338
siesta:     18.65171 -10.76857   0.00000  2      339
siesta:     20.98317  -6.73035   0.00000  2      340
siesta:     23.31463  -2.69214   0.00000  2      341
siesta:     25.64609   1.34607   0.00000  3      342
siesta:     27.97756   5.38428   0.00000  3      343
siesta:     30.30902   9.42250   0.00000  3      344
siesta:     32.64048  13.46071   0.00000  2      345
siesta:     34.97195  17.49892   0.00000  2      346
siesta:     37.30341  21.53713   0.00000  2      347
siesta:     39.63487  25.57535   0.00000  2      348
siesta:     41.96634  29.61356   0.00000  2      349
siesta:     44.29780  33.65177   0.00000  2      350
siesta:     46.62926  37.68998   0.00000  2      351
siesta:     48.96073  41.72820   0.00000  2      352
siesta:     16.32024 -22.88321   0.00000  2      353
siesta:     18.65171 -18.84499   0.00000  2      354
siesta:     20.98317 -14.80678   0.00000  2      355
siesta:     23.31463 -10.76857   0.00000  2      356
siesta:     25.64609  -6.73035   0.00000  2      357
siesta:     27.97756  -2.69214   0.00000  3      358
siesta:     30.30902   1.34607   0.00000  3      359
siesta:     32.64048   5.38428   0.00000  3      360
siesta:     34.97195   9.42250   0.00000  3      361
siesta:     37.30341  13.46071   0.00000  2      362
siesta:     39.63487  17.49892   0.00000  2      363
siesta:     41.96634  21.53713   0.00000  2      364
siesta:     44.29780  25.57535   0.00000  2      365
siesta:     46.62926  29.61356   0.00000  2      366
siesta:     48.96073  33.65177   0.00000  2      367
siesta:     51.29219  37.68998   0.00000  2      368
siesta:     18.65171 -26.92142   0.00000  2      369
siesta:     20.98317 -22.88321   0.00000  2      370
siesta:     23.31463 -18.84499   0.00000  2      371
siesta:     25.64609 -14.80678   0.00000  2      372
siesta:     27.97756 -10.76857   0.00000  2      373
siesta:     30.30902  -6.73035   0.00000  3      374
siesta:     32.64048  -2.69214   0.00000  3      375
siesta:     34.97195   1.34607   0.00000  3      376
siesta:     37.30341   5.38428   0.00000  3      377
siesta:     39.63487   9.42250   0.00000  3      378
siesta:     41.96634  13.46071   0.00000  2      379
siesta:     44.29780  17.49892   0.00000  2      380
siesta:     46.62926  21.53713   0.00000  2      381
siesta:     48.96073  25.57535   0.00000  2      382
siesta:     51.29219  29.61356   0.00000  2      383
siesta:     53.62365  33.65177   0.00000  2      384
siesta:     20.98317 -30.95963   0.00000  2      385
siesta:     23.31463 -26.92142   0.00000  2      386
siesta:     25.64609 -22.88321   0.00000  2      387
siesta:     27.97756 -18.84499   0.00000  2      388
siesta:     30.30902 -14.80678   0.00000  2      389
siesta:     32.64048 -10.76857   0.00000  3      390
siesta:     34.97195  -6.73035   0.00000  3      391
siesta:     37.30341  -2.69214   0.00000  3      392
siesta:     39.63487   1.34607   0.00000  3      393
siesta:     41.96634   5.38428   0.00000  3      394
siesta:     44.29780   9.42250   0.00000  3      395
siesta:     46.62926  13.46071   0.00000  2      396
siesta:     48.96073  17.49892   0.00000  2      397
siesta:     51.29219  21.53713   0.00000  2      398
siesta:     53.62365  25.57535   0.00000  2      399
siesta:     55.95512  29.61356   0.00000  2      400
siesta:     23.31463 -34.99784   0.00000  2      401
siesta:     25.64609 -30.95963   0.00000  2      402
siesta:     27.97756 -26.92142   0.00000  2      403
siesta:     30.30902 -22.88321   0.00000  2      404
siesta:     32.64048 -18.84499   0.00000  2      405
siesta:     34.97195 -14.80678   0.00000  2      406
siesta:     37.30341 -10.76857   0.00000  3      407
siesta:     39.63487  -6.73035   0.00000  3      408
siesta:     41.96634  -2.69214   0.00000  3      409
siesta:     44.29780   1.34607   0.00000  3      410
siesta:     46.62926   5.38428   0.00000  3      411
siesta:     48.96073   9.42250   0.00000  2      412
siesta:     51.29219  13.46071   0.00000  2      413
siesta:     53.62365  17.49892   0.00000  2      414
siesta:     55.95512  21.53713   0.00000  2      415
siesta:     58.28658  25.57535   0.00000  2      416
siesta:     25.64609 -39.03606   0.00000  2      417
siesta:     27.97756 -34.99784   0.00000  2      418
siesta:     30.30902 -30.95963   0.00000  2      419
siesta:     32.64048 -26.92142   0.00000  2      420
siesta:     34.97195 -22.88321   0.00000  2      421
siesta:     37.30341 -18.84499   0.00000  2      422
siesta:     39.63487 -14.80678   0.00000  2      423
siesta:     41.96634 -10.76857   0.00000  3      424
siesta:     44.29780  -6.73035   0.00000  3      425
siesta:     46.62926  -2.69214   0.00000  3      426
siesta:     48.96073   1.34607   0.00000  3      427
siesta:     51.29219   5.38428   0.00000  2      428
siesta:     53.62365   9.42250   0.00000  2      429
siesta:     55.95512  13.46071   0.00000  2      430
siesta:     58.28658  17.49892   0.00000  2      431
siesta:     60.61804  21.53713   0.00000  2      432
siesta:     27.97756 -43.07427   0.00000  2      433
siesta:     30.30902 -39.03606   0.00000  2      434
siesta:     32.64048 -34.99784   0.00000  2      435
siesta:     34.97195 -30.95963   0.00000  2      436
siesta:     37.30341 -26.92142   0.00000  2      437
siesta:     39.63487 -22.88321   0.00000  2      438
siesta:     41.96634 -18.84499   0.00000  2      439
siesta:     44.29780 -14.80678   0.00000  2      440
siesta:     46.62926 -10.76857   0.00000  2      441
siesta:     48.96073  -6.73035   0.00000  2      442
siesta:     51.29219  -2.69214   0.00000  2      443
siesta:     53.62365   1.34607   0.00000  2      444
siesta:     55.95512   5.38428   0.00000  2      445
siesta:     58.28658   9.42250   0.00000  2      446
siesta:     60.61804  13.46071   0.00000  2      447
siesta:     62.94951  17.49892   0.00000  2      448
siesta:     30.30902 -47.11248   0.00000  2      449
siesta:     32.64048 -43.07427   0.00000  2      450
siesta:     34.97195 -39.03606   0.00000  2      451
siesta:     37.30341 -34.99784   0.00000  2      452
siesta:     39.63487 -30.95963   0.00000  2      453
siesta:     41.96634 -26.92142   0.00000  2      454
siesta:     44.29780 -22.88321   0.00000  2      455
siesta:     46.62926 -18.84499   0.00000  2      456
siesta:     48.96073 -14.80678   0.00000  2      457
siesta:     51.29219 -10.76857   0.00000  2      458
siesta:     53.62365  -6.73035   0.00000  2      459
siesta:     55.95512  -2.69214   0.00000  2      460
siesta:     58.28658   1.34607   0.00000  2      461
siesta:     60.61804   5.38428   0.00000  2      462
siesta:     62.94951   9.42250   0.00000  2      463
siesta:     65.28097  13.46071   0.00000  2      464
siesta:     32.64048 -51.15069   0.00000  2      465
siesta:     34.97195 -47.11248   0.00000  2      466
siesta:     37.30341 -43.07427   0.00000  2      467
siesta:     39.63487 -39.03606   0.00000  2      468
siesta:     41.96634 -34.99784   0.00000  2      469
siesta:     44.29780 -30.95963   0.00000  2      470
siesta:     46.62926 -26.92142   0.00000  2      471
siesta:     48.96073 -22.88321   0.00000  2      472
siesta:     51.29219 -18.84499   0.00000  2      473
siesta:     53.62365 -14.80678   0.00000  2      474
siesta:     55.95512 -10.76857   0.00000  2      475
siesta:     58.28658  -6.73035   0.00000  2      476
siesta:     60.61804  -2.69214   0.00000  2      477
siesta:     62.94951   1.34607   0.00000  2      478
siesta:     65.28097   5.38428   0.00000  2      479
siesta:     67.61243   9.42250   0.00000  2      480
siesta:     34.97195 -55.18891   0.00000  2      481
siesta:     37.30341 -51.15069   0.00000  2      482
siesta:     39.63487 -47.11248   0.00000  2      483
siesta:     41.96634 -43.07427   0.00000  2      484
siesta:     44.29780 -39.03606   0.00000  2      485
siesta:     46.62926 -34.99784   0.00000  2      486
siesta:     48.96073 -30.95963   0.00000  2      487
siesta:     51.29219 -26.92142   0.00000  2      488
siesta:     53.62365 -22.88321   0.00000  2      489
siesta:     55.95512 -18.84499   0.00000  2      490
siesta:     58.28658 -14.80678   0.00000  2      491
siesta:     60.61804 -10.76857   0.00000  2      492
siesta:     62.94951  -6.73035   0.00000  2      493
siesta:     65.28097  -2.69214   0.00000  2      494
siesta:     67.61243   1.34607   0.00000  2      495
siesta:     69.94389   5.38428   0.00000  2      496
siesta:     37.30341 -59.22712   0.00000  2      497
siesta:     39.63487 -55.18891   0.00000  2      498
siesta:     41.96634 -51.15069   0.00000  2      499
siesta:     44.29780 -47.11248   0.00000  2      500
siesta:     46.62926 -43.07427   0.00000  2      501
siesta:     48.96073 -39.03606   0.00000  2      502
siesta:     51.29219 -34.99784   0.00000  2      503
siesta:     53.62365 -30.95963   0.00000  2      504
siesta:     55.95512 -26.92142   0.00000  2      505
siesta:     58.28658 -22.88321   0.00000  2      506
siesta:     60.61804 -18.84499   0.00000  2      507
siesta:     62.94951 -14.80678   0.00000  2      508
siesta:     65.28097 -10.76857   0.00000  2      509
siesta:     67.61243  -6.73035   0.00000  2      510
siesta:     69.94389  -2.69214   0.00000  2      511
siesta:     72.27536   1.34607   0.00000  2      512

siesta: System type = slab      

initatomlists: Number of atoms, orbitals, and projectors:    512  6656  8192

siesta: ******************** Simulation parameters ****************************
siesta:
siesta: The following are some of the parameters of the simulation.
siesta: A complete list of the parameters used, including default values,
siesta: can be found in file out.fdf
siesta:
redata: Non-Collinear-spin run           =     F
redata: SpinPolarized (Up/Down) run      =     F
redata: Number of spin components        =     1
redata: Long output                      =     F
redata: Number of Atomic Species         =        3
redata: Charge density info will appear in .RHO file
redata: Write Mulliken Pop.              =     NO
redata: Mesh Cutoff                      =   100.0000  Ry
redata: Net charge of the system         =     0.0000 |e|
redata: Min. number of SCF Iter          =        0
redata: Max. number of SCF Iter          =       50
redata: Mix DM or H after convergence    =     F
redata: Recompute H after scf cycle      =     F
redata: Performing Pulay mixing using    =     3 iterations
redata: Mix DM in first SCF step ?       =     F
redata: Write Pulay info on disk?        =     F
redata: Discard 1st Pulay DM after  kick =     F
redata: New DM Mixing Weight             =     0.3000
redata: New DM Occupancy tolerance       = 0.000000000001
redata: No kicks to SCF
redata: DM Mixing Weight for Kicks       =     0.5000
redata: DM Tolerance for SCF             =     0.000100
redata: Require (free) Energy convergence in SCF =     F
redata: DM (free)Energy tolerance for SCF =     0.000010 eV
redata: Require Harris convergence for SCF =     F
redata: DM Harris energy tolerance for SCF =     0.000010 eV
redata: Using Saved Data (generic)   =     F
redata: Use continuation files for DM    =     F
redata: Neglect nonoverlap interactions  =     F
redata: Method of Calculation            =     old SLEPc
redata: Fix the spin of the system       =     F
redata: Dynamics option                  =     Single-point calculation
redata: ***********************************************************************
Total number of electrons:  2044.000000
Total ionic charge:  2044.000000

* ProcessorY, Blocksize:    4 208


* Orbital distribution balance (max,min):   208   208

 Kpoints in:            1 . Kpoints trimmed:            1

siesta: k-grid: Number of k-points =     1
siesta: k-grid: Cutoff (effective) =     7.500 Ang
siesta: k-grid: Supercell and displacements
siesta: k-grid:    1   0   0      0.000
siesta: k-grid:    0   1   0      0.000
siesta: k-grid:    0   0   1      0.000

                     ====================================
                        Single-point calculation
                     ====================================

outcell: Unit cell vectors (Ang):
       19.740107  -34.190868    0.000000
       19.740107   34.190868    0.000000
        0.000000    0.000000   15.000000

outcell: Cell vector modules (Ang)   :   39.480214   39.480214   15.000000
outcell: Cell angles (23,13,12) (deg):     90.0000     90.0000    120.0000
outcell: Cell volume (Ang**3)        :  20247.9417
New_DM. Step:     1
Initializing Density Matrix...
New grid distribution:   1
           1       1:  108    1:   27    1:    6
           2       1:  108    1:   27    7:   12
           3       1:  108    1:   27   13:   18
           4       1:  108    1:   27   19:   24
           5       1:  108    1:   27   25:   30
           6       1:  108    1:   27   31:   36
           7       1:  108    1:   27   37:   42
           8       1:  108    1:   27   43:   48
           9       1:  108   28:   54    1:    6
          10       1:  108   28:   54    7:   12
          11       1:  108   28:   54   13:   18
          12       1:  108   28:   54   19:   24
          13       1:  108   28:   54   25:   30
          14       1:  108   28:   54   31:   36
          15       1:  108   28:   54   37:   42
          16       1:  108   28:   54   43:   48
          17       1:  108   55:   81    1:    6
          18       1:  108   55:   81    7:   12
          19       1:  108   55:   81   13:   18
          20       1:  108   55:   81   19:   24
          21       1:  108   55:   81   25:   30
          22       1:  108   55:   81   31:   36
          23       1:  108   55:   81   37:   42
          24       1:  108   55:   81   43:   48
          25       1:  108   82:  108    1:    6
          26       1:  108   82:  108    7:   12
          27       1:  108   82:  108   13:   18
          28       1:  108   82:  108   19:   24
          29       1:  108   82:  108   25:   30
          30       1:  108   82:  108   31:   36
          31       1:  108   82:  108   37:   42
          32       1:  108   82:  108   43:   48

InitMesh: MESH =   216 x   216 x    96 =     4478976
InitMesh: (bp) =   108 x   108 x    48 =      559872
InitMesh: Mesh cutoff (required, used) =   100.000   110.303 Ry
ExtMesh (bp) on 0 =   148 x    67 x    46 =      456136
New grid distribution:   2
           1      82:  108   81:  108    1:    6
           2       1:   27    1:   28    7:   48
           3      82:  108    1:   27    7:   48
           4       1:   29   29:   54    1:    6
           5      28:   54    1:   28    7:   48
           6      55:   81    1:   27    7:   48
           7      55:   81   81:  108    1:    6
           8      82:  108    1:   27    1:    6
           9      28:   54   81:  108    1:    6
          10      81:  108   28:   54    7:   48
          11       1:   29   29:   54    7:   48
          12      55:   81    1:   27    1:    6
          13      80:  108   55:   80    7:   48
          14      55:   80   28:   54    7:   48
          15      81:  108   28:   54    1:    6
          16       1:   28   55:   80    1:    6
          17       1:   27   81:  108    1:    6
          18       1:   27   81:  108    7:   48
          19       1:   28   55:   80    7:   48
          20      55:   80   28:   54    1:    6
          21      82:  108   81:  108    7:   48
          22      29:   54   55:   80    7:   48
          23      28:   54    1:   28    1:    6
          24      29:   54   55:   80    1:    6
          25      30:   54   29:   54    7:   48
          26      28:   54   81:  108    7:   48
          27       1:   27    1:   28    1:    6
          28      55:   79   55:   80    1:    6
          29      55:   81   81:  108    7:   48
          30      55:   79   55:   80    7:   48
          31      80:  108   55:   80    1:    6
          32      30:   54   29:   54    1:    6
New grid distribution:   3
           1      28:   54    1:   28    1:    9
           2      82:  108    1:   27    1:    9
           3      28:   54    1:   28   10:   48
           4      82:  108    1:   27   10:   48
           5       1:   27    1:   28   10:   48
           6      29:   54   29:   54   11:   48
           7       1:   28   55:   81    1:    9
           8      55:   81    1:   27    1:    9
           9      81:  108   28:   54    1:    9
          10       1:   27   82:  108    1:    9
          11      81:  108   28:   54   10:   48
          12       1:   28   29:   54   10:   48
          13      55:   81    1:   27   10:   48
          14      55:   80   28:   54   10:   48
          15       1:   27    1:   28    1:    9
          16       1:   28   29:   54    1:    9
          17      55:   81   81:  108    1:    9
          18      55:   79   55:   80    1:   10
          19       1:   28   55:   81   10:   48
          20      29:   54   55:   81   10:   48
          21      80:  108   55:   80   10:   48
          22      55:   79   55:   80   11:   48
          23      80:  108   55:   80    1:    9
          24      29:   54   55:   81    1:    9
          25      82:  108   81:  108    1:    9
          26      28:   54   82:  108    1:    9
          27      55:   81   81:  108   10:   48
          28       1:   27   82:  108   10:   48
          29      82:  108   81:  108   10:   48
          30      28:   54   82:  108   10:   48
          31      29:   54   29:   54    1:   10
          32      55:   80   28:   54    1:    9
Setting up quadratic distribution...
ExtMesh (bp) on 0 =    67 x    68 x    46 =      209576
PhiOnMesh: Number of (b)points on node 0 =                 4536
PhiOnMesh: nlist on node 0 =               358464
QETSC: Last update           = Dec 2, 2016
QETSC: Number of ranks       =          32
QETSC: Number of slices      =          32
QETSC: Number of ranks/slice =           1
QETSC: Number of evals/slice =  31.94
QETSC: Number of req. evals  =        1022
QETSC: Number of rows (all)  =        6656
QETSC: Number of rows (max)  =         208
QETSC: Number of rows (min)  =         208
QETSC: Number of nonzeros    =     3299984
QETSC: Nonzero % (all)       =   7.45
QETSC: Nonzero % (max)       =   8.12
QETSC: Nonzero % (min)       =   7.23
QETSC: Density option        =           0
QETSC: Bin type given        =           7
QETSC: Bin buffer given      =   0.10
QETSC: Diff thresh           =   0.10
QETSC: Infinity type         =           2
QETSC: Inertia type          =           1
 QETSC: Shifts, inertias         =
 -Infinity     0
    -2.300     0
    -2.226     0
    -2.152     0
    -2.077     0
    -2.003     0
    -1.929     0
    -1.855     3
    -1.781    28
    -1.706    70
    -1.632   118
    -1.558   158
    -1.484   201
    -1.410   244
    -1.335   273
    -1.261   319
    -1.187   361
    -1.113   421
    -1.039   467
    -0.965   537
    -0.890   637
    -0.816   740
    -0.742   824
    -0.668   897
    -0.594   941
    -0.519   993
    -0.445  1018
    -0.371  1024
    -0.297  1034
    -0.223  1079
    -0.148  1121
    -0.074  1155
     0.000  1181
 QETSc: Custers,iter,crange,npcmax,trial           1   4.9757544224765866E-002          64           4
-1.8795698924731181E+00
-1.8073548387096774E+00
-1.7559139784946236E+00
-1.7049059139784946E+00
-1.6538978494623655E+00
-1.6044354838709676E+00
-1.5528882220555138E+00
-1.5028507126781696E+00
-1.4528132033008252E+00
-1.4020022246941046E+00
-1.3508342602892103E+00
-1.3000000000000000E+00
-1.2489247311827956E+00
-1.1976958525345622E+00
-1.1462903225806451E+00
-1.0967741935483870E+00
-1.0467741935483870E+00
-9.9631336405529936E-01
-9.4596774193548372E-01
-8.9848387096774174E-01
-8.5214531788286862E-01
-8.0376344086021489E-01
-7.5341781874039937E-01
-7.0331418471056117E-01
-6.5256598240469210E-01
-6.0197947214076242E-01
-5.5074441687344911E-01
-5.0154838709677407E-01
-4.5109677419354832E-01
-4.2043010752688165E-01
-3.7096774193548376E-01
 QETSC: Bins             =
              -Infinity
-1.9290322580645158E+00
-1.8651268817204301E+00
-1.7970666666666666E+00
-1.7457123655913978E+00
-1.6947043010752687E+00
-1.6440053763440858E+00
-1.5941260315078769E+00
-1.5428807201800450E+00
-1.4928432108027008E+00
-1.4426510075794812E+00
-1.3917686318131257E+00
-1.3406674082313683E+00
-1.2897849462365591E+00
-1.2386789554531490E+00
-1.1874147465437788E+00
-1.1363870967741936E+00
-1.0867741935483870E+00
-1.0366820276497695E+00
-9.8624423963133623E-01
-9.3647096774193528E-01
-8.8921616035076712E-01
-8.4246894247833792E-01
-7.9369431643625177E-01
-7.4339709193443171E-01
-6.9316454424938734E-01
-6.4244868035190617E-01
-5.9173246108729971E-01
-5.4090521091811405E-01
-4.9145806451612895E-01
-4.4496344086021500E-01
-4.1053763440860208E-01
-3.7096774193548376E-01
QETSC: Started iter            1
QETSC: Bin type used         =           7
QETSC: Buffer used           =   0.0000000000000000E+00
QETSC: EPS interval          = -Infinity,    -0.371
QETSC: Inertia type          =           1
SLEPc: EPSSolve time = 31 1.192e-06
SLEPc: EPSSolve time = 0 9.537e-07
SLEPc: EPSSolve time = 29 4.251e+00
SLEPc: EPSSolve time = 1 4.786e+00
SLEPc: EPSSolve time = 30 4.866e+00
SLEPc: EPSSolve time = 2 6.487e+00
SLEPc: EPSSolve time = 28 6.489e+00
SLEPc: EPSSolve time = 11 7.863e+00
SLEPc: EPSSolve time = 9 8.048e+00
SLEPc: EPSSolve time = 7 8.709e+00
SLEPc: EPSSolve time = 13 8.758e+00
SLEPc: EPSSolve time = 8 8.856e+00
SLEPc: EPSSolve time = 12 8.918e+00
SLEPc: EPSSolve time = 6 8.927e+00
SLEPc: EPSSolve time = 10 9.139e+00
SLEPc: EPSSolve time = 14 9.348e+00
SLEPc: EPSSolve time = 3 9.361e+00
SLEPc: EPSSolve time = 25 9.490e+00
SLEPc: EPSSolve time = 26 1.218e+01
SLEPc: EPSSolve time = 27 1.243e+01
SLEPc: EPSSolve time = 17 1.540e+01
SLEPc: EPSSolve time = 5 1.605e+01
SLEPc: EPSSolve time = 15 1.618e+01
SLEPc: EPSSolve time = 16 1.664e+01
SLEPc: EPSSolve time = 18 1.693e+01
SLEPc: EPSSolve time = 4 1.706e+01
SLEPc: EPSSolve time = 22 1.759e+01
SLEPc: EPSSolve time = 23 1.769e+01
SLEPc: EPSSolve time = 24 1.832e+01
SLEPc: EPSSolve time = 19 1.874e+01
SLEPc: EPSSolve time = 21 1.922e+01
SLEPc: EPSSolve time = 20 1.969e+01
 QETSC: Eigenvalues         =
-1.8877065688028318E+00
-1.8684196519944518E+00
-1.8684196518317377E+00
-1.8442585566113252E+00
-1.8442585563539657E+00
-1.8377101696286946E+00
-1.8254404324937652E+00
-1.8138444251040371E+00
-1.8108085714475708E+00
-1.8108085714092832E+00
-1.8092630458654835E+00
-1.8087101251240247E+00
-1.8087101251093174E+00
-1.8028386285243201E+00
-1.8009504133821539E+00
-1.8009504132234699E+00
-1.7979122278019015E+00
-1.7949303498725229E+00
-1.7949303498249305E+00
-1.7944576767106295E+00
-1.7922700744746758E+00
-1.7922700743940367E+00
-1.7908653847219009E+00
-1.7908653846380467E+00
-1.7903406389371310E+00
-1.7874765885219792E+00
-1.7807615723839076E+00
-1.7807615721988204E+00
-1.7735485820414587E+00
-1.7735485817988510E+00
-1.7709403141013154E+00
-1.7709403139415081E+00
-1.7708342389378031E+00
-1.7696433538425960E+00
-1.7685388323067848E+00
-1.7681654795976876E+00
-1.7681654795874060E+00
-1.7647626757400827E+00
-1.7647626754960966E+00
-1.7625127751035368E+00
-1.7581209828489666E+00
-1.7581209824507897E+00
-1.7567743994319680E+00
-1.7523074353185695E+00
-1.7523074346478924E+00
-1.7510564758797673E+00
-1.7455509897119807E+00
-1.7448732455670637E+00
-1.7448732453800664E+00
-1.7373243053254155E+00
-1.7373243050837555E+00
-1.7368670114328675E+00
-1.7365950080957766E+00
-1.7365950079626777E+00
-1.7337394188810682E+00
-1.7335374303545785E+00
-1.7331497973868206E+00
-1.7331497970171925E+00
-1.7301265912239105E+00
-1.7288826727573969E+00
-1.7288826726646749E+00
-1.7252766925949869E+00
-1.7252766925664766E+00
-1.7244671835022956E+00
-1.7244671834730114E+00
-1.7239665835786286E+00
-1.7157034754056193E+00
-1.7106993055078921E+00
-1.7106993048962724E+00
-1.7090854408017238E+00
-1.7060746779402445E+00
-1.7060746773880535E+00
-1.7012476158537300E+00
-1.7010039724863806E+00
-1.7010039724623032E+00
-1.7008675969624920E+00
-1.6934784319768639E+00
-1.6933092604552009E+00
-1.6933092599835808E+00
-1.6932521422833504E+00
-1.6911452930046711E+00
-1.6911452925108736E+00
-1.6909786957399149E+00
-1.6902679368149145E+00
-1.6902679365594167E+00
-1.6890183530198271E+00
-1.6862202431103510E+00
-1.6843364659303406E+00
-1.6843364653591202E+00
-1.6821836195414597E+00
-1.6821836190183697E+00
-1.6819551734875480E+00
-1.6761053307093816E+00
-1.6761053302573607E+00
-1.6757276172770534E+00
-1.6756418167234879E+00
-1.6735097725353647E+00
-1.6735097721296397E+00
-1.6647286434356934E+00
-1.6647286433423361E+00
-1.6596559118386280E+00
-1.6596559110687379E+00
-1.6592015799300643E+00
-1.6564270585193122E+00
-1.6564270582137226E+00
-1.6468300979936241E+00
-1.6468300975121204E+00
-1.6456733045119729E+00
-1.6412484083598085E+00
-1.6411529940386265E+00
-1.6411529939998486E+00
-1.6395096646084393E+00
-1.6395096640074134E+00
-1.6387413818169392E+00
-1.6386597416409470E+00
-1.6386597413624961E+00
-1.6365872235207599E+00
-1.6337366294380142E+00
-1.6306326884445972E+00
-1.6306326876995949E+00
-1.6290598148919890E+00
-1.6269997253488091E+00
-1.6257994962197886E+00
-1.6257994957454984E+00
-1.6189366778439944E+00
-1.6189366771881466E+00
-1.6170226688885041E+00
-1.6163451311974890E+00
-1.6149968666206416E+00
-1.6149968661728318E+00
-1.6081334824874973E+00
-1.6016842831820741E+00
-1.6016842830857665E+00
-1.6005396189792771E+00
-1.5979074714205332E+00
-1.5979074711559058E+00
-1.5863337474452761E+00
-1.5863337473352406E+00
-1.5845976194053901E+00
-1.5825124358452158E+00
-1.5825124349070190E+00
-1.5800376954889368E+00
-1.5800376950151369E+00
-1.5796131217346343E+00
-1.5789099371387363E+00
-1.5789099367485615E+00
-1.5786080561496825E+00
-1.5733661821460561E+00
-1.5729409595268804E+00
-1.5729409590921768E+00
-1.5717641325893068E+00
-1.5696298768127281E+00
-1.5696298764565524E+00
-1.5663613520774415E+00
-1.5663613515356500E+00
-1.5645376886663502E+00
-1.5622031762944100E+00
-1.5622031760800530E+00
-1.5575345800481510E+00
-1.5554792380850875E+00
-1.5486919990963717E+00
-1.5486919982369005E+00
-1.5482066448211222E+00
-1.5459630489602485E+00
-1.5459630484875262E+00
-1.5431919858484255E+00
-1.5424302111456714E+00
-1.5424302100480531E+00
-1.5367145755604326E+00
-1.5294913853520620E+00
-1.5294913845559610E+00
-1.5291317305114269E+00
-1.5265590271785501E+00
-1.5181313526435898E+00
-1.5181313525328013E+00
-1.5135220068145936E+00
-1.5114849667861920E+00
-1.5114849665546011E+00
-1.5102717367186613E+00
-1.5101759733116908E+00
-1.5099836034593710E+00
-1.5099836030787557E+00
-1.5092806220236696E+00
-1.5092806214942904E+00
-1.5073686703519293E+00
-1.5033159977424182E+00
-1.5033159974127348E+00
-1.5015593583704403E+00
-1.5015593578471567E+00
-1.4996977760363230E+00
-1.4985063858728851E+00
-1.4981244027929945E+00
-1.4981244020568758E+00
-1.4966964788346897E+00
-1.4966964784667232E+00
-1.4909510698086752E+00
-1.4894614993577309E+00
-1.4894614992500186E+00
-1.4889208791731654E+00
-1.4847016246824447E+00
-1.4847016241538462E+00
-1.4768262119003208E+00
-1.4768262115520838E+00
-1.4761692075542574E+00
-1.4734649929187329E+00
-1.4734649924632763E+00
-1.4681342172692984E+00
-1.4663233141254932E+00
-1.4617372466383689E+00
-1.4615184813979762E+00
-1.4615184798914469E+00
-1.4583363953639221E+00
-1.4583363950762274E+00
-1.4558057392674641E+00
-1.4558057388671586E+00
-1.4520318355563928E+00
-1.4471764584666611E+00
-1.4435439204586389E+00
-1.4435439202072453E+00
-1.4424803250076290E+00
-1.4389232607355487E+00
-1.4377009497249389E+00
-1.4377009491273194E+00
-1.4373745783055381E+00
-1.4370199364900327E+00
-1.4370199360336746E+00
-1.4359871453201412E+00
-1.4359871449759853E+00
-1.4346121361385955E+00
-1.4341452676557285E+00
-1.4314673042848582E+00
-1.4314673035196870E+00
-1.4296778154349654E+00
-1.4291133576545256E+00
-1.4291133575497457E+00
-1.4289362208515097E+00
-1.4276514711069217E+00
-1.4276514705182837E+00
-1.4254829124434660E+00
-1.4252092805493535E+00
-1.4252092803761567E+00
-1.4201816968572323E+00
-1.4116097733276509E+00
-1.4116097727540864E+00
-1.3995856399849134E+00
-1.3995856398531110E+00
-1.3802555928207669E+00
-1.3779803403102582E+00
-1.3779803402858366E+00
-1.3756706427037195E+00
-1.3712378561728347E+00
-1.3712378560980871E+00
-1.3710078783006412E+00
-1.3699552637942836E+00
-1.3699552635109407E+00
-1.3640835893892682E+00
-1.3636836196704707E+00
-1.3636836192276589E+00
-1.3582422128924141E+00
-1.3554728982960349E+00
-1.3554728967698775E+00
-1.3552163925634171E+00
-1.3536165043248174E+00
-1.3536165023403641E+00
-1.3525281848390402E+00
-1.3474079421639999E+00
-1.3474079419559726E+00
-1.3455492793038053E+00
-1.3455492775155882E+00
-1.3442597087215464E+00
-1.3439343936543766E+00
-1.3390402399172832E+00
-1.3390402371590056E+00
-1.3340267904802936E+00
-1.3269197920020894E+00
-1.3269197914545745E+00
-1.3257189542772567E+00
-1.3204320029021903E+00
-1.3204320026249208E+00
-1.3183159388287504E+00
-1.3183159384659846E+00
-1.3172133668483410E+00
-1.3157997890792319E+00
-1.3154532855498591E+00
-1.3152590531834794E+00
-1.3152590524386591E+00
-1.3132425939959838E+00
-1.3132425927690585E+00
-1.3128982134566256E+00
-1.3081610788773341E+00
-1.3070055963535621E+00
-1.3061987373852386E+00
-1.3061987369483823E+00
-1.3029995458636148E+00
-1.3029995451705951E+00
-1.2999886627629369E+00
-1.2989208701134163E+00
-1.2989208690598870E+00
-1.2958430938030032E+00
-1.2958430935168377E+00
-1.2946230489578086E+00
-1.2946230488609523E+00
-1.2919257353996794E+00
-1.2887218182772746E+00
-1.2887218150020041E+00
-1.2846717038096862E+00
-1.2846717035386885E+00
-1.2836788210808530E+00
-1.2836788210725352E+00
-1.2823993846756323E+00
-1.2818494773657034E+00
-1.2771102858119427E+00
-1.2763042992396707E+00
-1.2675156330749751E+00
-1.2665849735301893E+00
-1.2665849710880455E+00
-1.2651499035428511E+00
-1.2638548483602163E+00
-1.2638548470942630E+00
-1.2574919786841146E+00
-1.2567558050892758E+00
-1.2567558046468552E+00
-1.2565376637116741E+00
-1.2529328424602568E+00
-1.2529328421192163E+00
-1.2488450542316529E+00
-1.2488450540356293E+00
-1.2458727845663207E+00
-1.2458727827939613E+00
-1.2422444632367926E+00
-1.2394541521040734E+00
-1.2393162053743836E+00
-1.2393162050911311E+00
-1.2380359116482187E+00
-1.2371286851919892E+00
-1.2371286845113387E+00
-1.2346827759565302E+00
-1.2346827756371948E+00
-1.2305532011984377E+00
-1.2305531946292756E+00
-1.2300718122995367E+00
-1.2237401264532235E+00
-1.2201712599434054E+00
-1.2199901855596880E+00
-1.2199901787609704E+00
-1.2183396661443566E+00
-1.2168045702366983E+00
-1.2118886710646632E+00
-1.2118886657968131E+00
-1.2117205927508148E+00
-1.2117205915600364E+00
-1.2040545599978609E+00
-1.2040545569479952E+00
-1.2006791633262308E+00
-1.1937761754862868E+00
-1.1932103668743217E+00
-1.1917852897628196E+00
-1.1917852894872247E+00
-1.1910529370430012E+00
-1.1902771203385545E+00
-1.1902771192325621E+00
-1.1868674127282905E+00
-1.1868674105156924E+00
-1.1843788664938562E+00
-1.1840605141831282E+00
-1.1840605138170066E+00
-1.1823040329593080E+00
-1.1823040328599119E+00
-1.1816005617174237E+00
-1.1801364381337549E+00
-1.1801364358756139E+00
-1.1790038860268390E+00
-1.1784905129395020E+00
-1.1774456136068139E+00
-1.1774456131168090E+00
-1.1767222461849753E+00
-1.1767222455148776E+00
-1.1729255058401922E+00
-1.1701082730484256E+00
-1.1658144011967138E+00
-1.1658143994246375E+00
-1.1643509843007869E+00
-1.1623971405844038E+00
-1.1623971383668874E+00
-1.1580710575038136E+00
-1.1414936101174304E+00
-1.1392367171176854E+00
-1.1392367153121092E+00
-1.1385423467780083E+00
-1.1385423443303875E+00
-1.1350536116919392E+00
-1.1344154928295358E+00
-1.1338269353393708E+00
-1.1338269321181138E+00
-1.1332759940752970E+00
-1.1322882503059377E+00
-1.1322882496350284E+00
-1.1314821399171620E+00
-1.1307179409712611E+00
-1.1307179398273028E+00
-1.1295221255114849E+00
-1.1293941296116210E+00
-1.1293941295151588E+00
-1.1288742389976825E+00
-1.1288742379161523E+00
-1.1251451768264358E+00
-1.1251451762967855E+00
-1.1243666955088740E+00
-1.1226816244965017E+00
-1.1223335086276176E+00
-1.1223335077126959E+00
-1.1206505232084332E+00
-1.1196627708538014E+00
-1.1183918083137150E+00
-1.1183918067800618E+00
-1.1172800178533544E+00
-1.1172800164263677E+00
-1.1160650063991733E+00
-1.1160650051146588E+00
-1.1141747937022570E+00
-1.1130581736262133E+00
-1.1053874148124667E+00
-1.1053874146142939E+00
-1.1033151962764205E+00
-1.1033151947410402E+00
-1.1009607963211963E+00
-1.0965901222652232E+00
-1.0857106314499660E+00
-1.0835001863637248E+00
-1.0835001839061458E+00
-1.0827900118462455E+00
-1.0820810096677096E+00
-1.0820810092133697E+00
-1.0800559726622845E+00
-1.0793118650910283E+00
-1.0790647247232903E+00
-1.0790647227484553E+00
-1.0783660359604066E+00
-1.0783660329199176E+00
-1.0751717140920927E+00
-1.0747851047180688E+00
-1.0747851045037760E+00
-1.0718957194579914E+00
-1.0718957171666086E+00
-1.0717707702941373E+00
-1.0706030786738552E+00
-1.0706030753566964E+00
-1.0698616427339427E+00
-1.0663205443577770E+00
-1.0644850684670930E+00
-1.0644850664917580E+00
-1.0496547467224060E+00
-1.0490204122764510E+00
-1.0490204122156626E+00
-1.0486170944171618E+00
-1.0480846522935869E+00
-1.0480846509527468E+00
-1.0478513131677560E+00
-1.0474698436043024E+00
-1.0474698427255686E+00
-1.0449228662135033E+00
-1.0439363258219563E+00
-1.0439363234996122E+00
-1.0429384370780395E+00
-1.0429384358712985E+00
-1.0406685151223574E+00
-1.0399540165322474E+00
-1.0381774501332641E+00
-1.0381774480378827E+00
-1.0358187044875975E+00
-1.0328333661147693E+00
-1.0328333619076793E+00
-1.0315312726601367E+00
-1.0315312724677543E+00
-1.0312303632170954E+00
-1.0304714199667970E+00
-1.0304714140893119E+00
-1.0304379581551391E+00
-1.0293152802537739E+00
-1.0293152764052376E+00
-1.0290053866029500E+00
-1.0268234296568957E+00
-1.0243316959473621E+00
-1.0243185513019661E+00
-1.0243185506770291E+00
-1.0230465116711214E+00
-1.0230465082316340E+00
-1.0205087551389209E+00
-1.0205087540354365E+00
-1.0193119429857249E+00
-1.0179900533701105E+00
-1.0179900514724942E+00
-1.0172737313169675E+00
-1.0019348486971571E+00
-1.0007520039570414E+00
-1.0007520021218004E+00
-9.9998601842636381E-01
-9.9998601762799000E-01
-9.9884781197615902E-01
-9.9689486113875958E-01
-9.9689486078601885E-01
-9.9614980461574210E-01
-9.9614980261981090E-01
-9.9561631311937815E-01
-9.9549182299441752E-01
-9.8131483529982699E-01
-9.8131483087393767E-01
-9.8103705895157733E-01
-9.7842990045749179E-01
-9.7840541970264094E-01
-9.7840541707015416E-01
-9.7780376765374333E-01
-9.7740252483279444E-01
-9.7740252269638395E-01
-9.7655184900835890E-01
-9.7655184754009394E-01
-9.7602729015208645E-01
-9.7333750756517379E-01
-9.7333750628208848E-01
-9.7282088898206143E-01
-9.7146123791476247E-01
-9.7092867598574528E-01
-9.7092867165233288E-01
-9.7052597319397527E-01
-9.7052596812896208E-01
-9.7050295681952403E-01
-9.7033147822260524E-01
-9.7033147591553826E-01
-9.6946938523242165E-01
-9.6914232350437279E-01
-9.6914232094282649E-01
-9.6900001570168393E-01
-9.6792006698419908E-01
-9.6792006588323709E-01
-9.6752544920196804E-01
-9.6588289522399595E-01
-9.6588289266706184E-01
-9.6444308732836770E-01
-9.6168291925508254E-01
-9.6168291534828176E-01
-9.5960901785895636E-01
-9.5200618695045813E-01
-9.5200618496462963E-01
-9.5172353543733290E-01
-9.5050109188277099E-01
-9.5024294007276855E-01
-9.5024293956453243E-01
-9.4988678219037670E-01
-9.4983069048713253E-01
-9.4966700130879278E-01
-9.4966699923566167E-01
-9.4744671373971778E-01
-9.4744671194856811E-01
-9.4453350727551999E-01
-9.4347707918656520E-01
-9.4252781916985084E-01
-9.4252781630563809E-01
-9.4244172896414946E-01
-9.4053879374379734E-01
-9.4053879043019240E-01
-9.3241637235359309E-01
-9.3241636465589250E-01
-9.3170298528149564E-01
-9.2512380793878823E-01
-9.2512380788462323E-01
-9.2463892412791238E-01
-9.2463892222298449E-01
-9.2228939512389141E-01
-9.2226186911499164E-01
-9.2225728007848484E-01
-9.2222686635830609E-01
-9.2222686509480167E-01
-9.2117627870390217E-01
-9.2117627816161318E-01
-9.2080920714810388E-01
-9.2042543494669193E-01
-9.1970657060482119E-01
-9.1968969813170431E-01
-9.1968969400496781E-01
-9.1936916526859269E-01
-9.1936916218149844E-01
-9.1865246800257616E-01
-9.1809836813881207E-01
-9.1809836685182000E-01
-9.1782734127135857E-01
-9.1782733870870781E-01
-9.1737401817586561E-01
-9.1654330465852463E-01
-9.1654330419097019E-01
-9.1645261103141662E-01
-9.1645261102064146E-01
-9.1593964369603587E-01
-9.1511995140652214E-01
-9.1460553730624450E-01
-9.1460553450241555E-01
-9.1336146121269823E-01
-9.1134282952845280E-01
-9.1134282812008094E-01
-9.1026559664244011E-01
-9.1007161499100286E-01
-9.1007161441008699E-01
-9.0929691126380752E-01
-9.0878317244396745E-01
-9.0861661664128135E-01
-9.0861661663314497E-01
-9.0788282223112649E-01
-9.0788282202941795E-01
-9.0763386527853784E-01
-9.0638237807402811E-01
-9.0623417121748684E-01
-9.0612664693669143E-01
-9.0612664664780862E-01
-9.0579958264236649E-01
-9.0490921561284110E-01
-9.0490921474823460E-01
-9.0387924660511232E-01
-9.0387924655918472E-01
-9.0324796012125641E-01
-9.0324795560704640E-01
-9.0212252305971097E-01
-9.0212251659085163E-01
-9.0098274354140306E-01
-9.0081759670386807E-01
-8.9708838496291410E-01
-8.9708838324023110E-01
-8.9641146897766855E-01
-8.9572997374013041E-01
-8.9572997191465320E-01
-8.9561993318697541E-01
-8.9561993315264854E-01
-8.9536763751637549E-01
-8.9527426178183767E-01
-8.9527426176064051E-01
-8.9434449227020318E-01
-8.9339626112890791E-01
-8.9103433622468142E-01
-8.9103433313685210E-01
-8.8953700790050572E-01
-8.8689205380231284E-01
-8.8689205110129465E-01
-8.8626840809839114E-01
-8.8431246566003485E-01
-8.8430024622621517E-01
-8.8430024370659399E-01
-8.8413331192405342E-01
-8.8310251308943966E-01
-8.8310251073954404E-01
-8.8304163084305831E-01
-8.8098730974684447E-01
-8.8070285196051179E-01
-8.8070285118329228E-01
-8.7852418953427691E-01
-8.7843619565577868E-01
-8.7843619346306734E-01
-8.7812528897003050E-01
-8.7812528890200614E-01
-8.7763318200884066E-01
-8.7763318199008111E-01
-8.7682405389025375E-01
-8.7682405199251556E-01
-8.7646164598598908E-01
-8.7613200423970283E-01
-8.7613200348745912E-01
-8.7500189460747502E-01
-8.7479071743777814E-01
-8.7292037129578137E-01
-8.7292036653672700E-01
-8.7250243978337882E-01
-8.7092797637090058E-01
-8.7089765179473655E-01
-8.7089764706844597E-01
-8.6947823211789577E-01
-8.6947823208429842E-01
-8.6892739133378094E-01
-8.6892546073205534E-01
-8.6892546064287224E-01
-8.6885408330601177E-01
-8.6821729970703787E-01
-8.6821729880625587E-01
-8.6678815017018962E-01
-8.6573096055290943E-01
-8.6573095920944831E-01
-8.6461983534184184E-01
-8.5919974474076477E-01
-8.5781873528249397E-01
-8.5781873521619889E-01
-8.5775932389717346E-01
-8.5775932226698615E-01
-8.5765680472273298E-01
-8.5700306660947134E-01
-8.5669225534796245E-01
-8.5669225528214576E-01
-8.5604859180862991E-01
-8.5604858938556083E-01
-8.5564929196063555E-01
-8.5380070326306745E-01
-8.5285947702246601E-01
-8.5285947304347709E-01
-8.4831941352671558E-01
-8.4831941147334977E-01
-8.4665050161262012E-01
-8.4657269532434276E-01
-8.4478259988266569E-01
-8.4478259977021031E-01
-8.4468862647428367E-01
-8.4468862501186670E-01
-8.4378604269223489E-01
-8.4362194271754698E-01
-8.4362194256179701E-01
-8.4247859436175210E-01
-8.4026630473823949E-01
-8.4020979925313044E-01
-8.4020979786841510E-01
-8.3964481371415578E-01
-8.3883212085908221E-01
-8.3810913004480592E-01
-8.3810912993673925E-01
-8.3634067960920788E-01
-8.3634067956386193E-01
-8.3062010051462842E-01
-8.2825068439727834E-01
-8.2825068432012539E-01
-8.2712669193601029E-01
-8.2712669184654886E-01
-8.2691323724240740E-01
-8.2547027793488714E-01
-8.2486841122143917E-01
-8.2486841112297637E-01
-8.2449705490925485E-01
-8.2448209426193531E-01
-8.2448209192989685E-01
-8.2356913828619160E-01
-8.2356913816081745E-01
-8.2291716557218264E-01
-8.2203071474301836E-01
-8.2135938621298421E-01
-8.2135938456601520E-01
-8.1943960514579117E-01
-8.1943960497463675E-01
-8.1832068426666260E-01
-8.1172732534435321E-01
-8.1172732434059569E-01
-8.1144656589801656E-01
-8.1028669188080416E-01
-8.0852522050325115E-01
-8.0826607524680616E-01
-8.0826607485019453E-01
-8.0772374562933136E-01
-8.0772374549561399E-01
-8.0771206398206863E-01
-8.0689063184647847E-01
-8.0541465838876802E-01
-8.0541465817894864E-01
-8.0478304703404047E-01
-8.0478304692920444E-01
-8.0448008472437149E-01
-8.0448008468270271E-01
-8.0436607551334605E-01
-8.0178641209025681E-01
-8.0178641194235034E-01
-8.0144217159525188E-01
-8.0103453273094516E-01
-8.0099440523970489E-01
-8.0099440183667248E-01
-8.0046682596430707E-01
-8.0046682586405971E-01
-8.0036555004324594E-01
-7.9906808250511874E-01
-7.9753814751276508E-01
-7.9753814699382852E-01
-7.9264765122630998E-01
-7.9085278200889475E-01
-7.9085278185626107E-01
-7.9066566570865071E-01
-7.9066566482020484E-01
-7.8975831933679708E-01
-7.8715645789119770E-01
-7.8715645781428967E-01
-7.8621525774947543E-01
-7.8060768484354515E-01
-7.7927417892044148E-01
-7.7927417883443084E-01
-7.7885146735307964E-01
-7.7885146727774479E-01
-7.7765039186058127E-01
[...]
-9.6724827915886777E+00
-9.6724240767724083E+00
-9.6614163493318816E+00
-9.6573491722465405E+00
-9.6539629818088990E+00
-9.6539063891268722E+00
-9.6495973276683689E+00
-9.6495446781361132E+00
-9.6155810972781257E+00
-9.6091450632034512E+00
-9.6053214800607609E+00
-9.6052410665038455E+00
-9.5999651127231296E+00
-9.5998938402847109E+00
-9.5995392075504284E+00
-9.5907704487244683E+00
-9.5907062243005861E+00
-9.5576468131137666E+00
-9.5496553557855659E+00
-9.5491662415189502E+00
-9.5491026345457453E+00
-9.5410385137069174E+00
-9.5409753119088538E+00
-9.5273512070050561E+00
-9.5250021067482802E+00
-9.5182545541215031E+00
-9.5181744498260628E+00
-9.5155947250110042E+00
-9.5155396332752815E+00
-9.5033392586247949E+00
-9.4936691929110832E+00
-9.4935963076596437E+00
-9.4780796443106325E+00
-9.4686485816213679E+00
-9.4685789661627542E+00
-9.4416552027271745E+00
-9.4389315769551985E+00
-9.4320162890544079E+00
-9.4319453672087175E+00
-9.4299281860226802E+00
-9.4298588983085310E+00
-9.4042714982267235E+00
-9.4009494961541336E+00
-9.3963906262915557E+00
-9.3942985565045571E+00
-9.3942241824475747E+00
-9.3914990574103463E+00
-9.3911066894550501E+00
-9.3910295075666177E+00
-9.3868515905072822E+00
-9.3867688065257209E+00
-9.3807508929479742E+00
-9.3806846928552652E+00
-9.3577779189087060E+00
-9.3479003540915251E+00
-9.3478277684902551E+00
-9.3187664318745274E+00
-9.3108084174739094E+00
-9.3107508575872746E+00
-9.3099279094661966E+00
-9.3013850840969337E+00
-9.3013219492527934E+00
-9.2936582392917000E+00
-9.2924304736567027E+00
-9.2865995500930563E+00
-9.2865433066018372E+00
-9.2849190776738819E+00
-9.2829969544748145E+00
-9.2829254654737170E+00
-9.2761469239069605E+00
-9.2760820750659576E+00
-9.2747074667039708E+00
-9.2644311748248871E+00
-9.2643554731158293E+00
-9.2590914677036551E+00
-9.2491718153374087E+00
-9.2490994689980806E+00
-9.2386835492629054E+00
-9.2280099964586828E+00
-9.2279314722219397E+00
-9.1999133951709897E+00
-9.1899364871869338E+00
-9.1898619608665850E+00
-9.1835468260546342E+00
-9.1816014053695021E+00
-9.1737327732760505E+00
-9.1736332923241317E+00
-9.1692684067953873E+00
-9.1692053782300658E+00
-9.1286652773053198E+00
-9.1278055930568076E+00
-9.1195685167284761E+00
-9.1194964703190440E+00
-9.1180745464712238E+00
-9.1180026270005978E+00
-9.1070809313668910E+00
-9.1049897794340637E+00
-9.0977567981526501E+00
-9.0976866963630840E+00
-9.0968604443269410E+00
-9.0968009180399729E+00
-9.0869601956680643E+00
-9.0792974509853632E+00
-9.0792381816010188E+00
-9.0743052435366405E+00
-9.0662639443760487E+00
-9.0662048373321777E+00
-9.0417290657688927E+00
-9.0314762543914071E+00
-9.0313980006950825E+00
-9.0213527591661578E+00
-9.0112823884914199E+00
-9.0112114556503400E+00
-9.0109714226129558E+00
-9.0033527275584149E+00
-9.0032974440624045E+00
-8.9929686833090017E+00
-8.9815998750055588E+00
-8.9815127468365326E+00
-8.9624740211255904E+00
-8.9552904968602736E+00
-8.9552390980530561E+00
-8.9544530373646349E+00
-8.9460041446999146E+00
-8.9459420835540406E+00
-8.9401502142860778E+00
-8.9393240517369854E+00
-8.9370978080874099E+00
-8.9320479615959343E+00
-8.9319945726278700E+00
-8.9299060822022849E+00
-8.9298541768856179E+00
-8.9259537822426083E+00
-8.9258484027133882E+00
-8.9246879350578805E+00
-8.9224717733434993E+00
-8.9153234377127148E+00
-8.9152722592679190E+00
-8.9143254432295826E+00
-8.9142497872387061E+00
-8.9115067112506985E+00
-8.9037486246292552E+00
-8.9012901160055549E+00
-8.9012149436702721E+00
-8.8972926569842521E+00
-8.8956425240388199E+00
-8.8955829108113793E+00
-8.8883991982132127E+00
-8.8883341587194096E+00
-8.8691989399880651E+00
-8.8643326148911630E+00
-8.8600192260898041E+00
-8.8599522448848234E+00
-8.8566090482961908E+00
-8.8553834816193238E+00
-8.8553153654127410E+00
-8.8496345343408898E+00
-8.8495847973114419E+00
-8.8340775000933327E+00
-8.8307250191744675E+00
-8.8280499107742578E+00
-8.8251177180918994E+00
-8.8250506223154979E+00
-8.8223915024195296E+00
-8.8223308299704186E+00
-8.8198063324935010E+00
-8.8197457679830187E+00
-8.8101838275834190E+00
-8.7994829323112302E+00
-8.7994000184941683E+00
-8.7936694838367035E+00
-8.7877786264477251E+00
-8.7843898213604046E+00
-8.7843050082411018E+00
-8.7805876134576533E+00
-8.7805364471888243E+00
-8.7655298578822975E+00
-8.7558506003464007E+00
-8.7557737474671544E+00
-8.7543641691745009E+00
-8.7451174314344797E+00
-8.7450485940582983E+00
-8.7178967957117131E+00
-8.7094548966360268E+00
-8.7093039620426254E+00
-8.6991534064081666E+00
-8.6964003844665214E+00
-8.6924626097708195E+00
-8.6916934390399767E+00
-8.6886074584548236E+00
-8.6885498233647205E+00
-8.6752181502944268E+00
-8.6724772622725528E+00
-8.6697006459445358E+00
-8.6674521142524519E+00
-8.6673423264194280E+00
-8.6672834807333956E+00
-8.6627979450479113E+00
-8.6622527896941381E+00
-8.6622018621754204E+00
-8.6615386587209002E+00
-8.6581442742444406E+00
-8.6533450514353500E+00
-8.6522745000612709E+00
-8.6502834718559054E+00
-8.6502262653460704E+00
-8.6443238692914548E+00
-8.6408937472615275E+00
-8.6368842341510366E+00
-8.6293857584774631E+00
-8.6193203402715035E+00
-8.6190536284422858E+00
-8.6097367246188359E+00
-8.6010154194590580E+00
-8.6009507625670327E+00
-8.5873471617895927E+00
-8.5846760899644394E+00
-8.5792807348242484E+00
-8.5792219824651852E+00
-8.5775038671211039E+00
-8.5768907705851376E+00
-8.5762712703326880E+00
-8.5731839555539402E+00
-8.5708776927424015E+00
-8.5685637468499785E+00
-8.5684975743174494E+00
-8.5673063880763962E+00
-8.5657065812256583E+00
-8.5613178203130715E+00
-8.5609603197142334E+00
-8.5578784924529128E+00
-8.5564714936117063E+00
-8.5539620232812705E+00
-8.5496426505279093E+00
-8.5411466048006144E+00
-8.5410810013711504E+00
-8.5237532033149055E+00
-8.5160070283676994E+00
-8.5136853597083899E+00
-8.5136098845226993E+00
-8.5079071756002822E+00
-8.5077469284491247E+00
-8.5075563692706737E+00
-8.4991796639665171E+00
-8.4987833529440149E+00
-8.4861539290165684E+00
-8.4787768997960811E+00
-8.4785626943275911E+00
-8.4513557380762556E+00
-8.4433199219851502E+00
-8.4432548194869028E+00
-8.4342560635931054E+00
-8.4280060240775576E+00
-8.4256367806884427E+00
-8.4255706966640957E+00
-8.4192707652643026E+00
-8.4182523379939429E+00
-8.4181818097238903E+00
-8.4106862942400582E+00
-8.4105290499479839E+00
-8.3619001907842385E+00
-8.3571410061400506E+00
-8.3551232660209518E+00
-8.3550736805739056E+00
-8.3505437950109354E+00
-8.3504974344693714E+00
-8.3498783250394748E+00
-8.3410129691590242E+00
-8.3408538153341123E+00
-8.3306164826344382E+00
-8.3234616822462950E+00
-8.3227115842193395E+00
-8.3176877560821953E+00
-8.3167469941898240E+00
-8.3128319181613097E+00
-8.3096496830430144E+00
-8.3071334614844101E+00
-8.3015303108063083E+00
-8.3014709786837653E+00
-8.3005074709996460E+00
-8.2992640815932059E+00
-8.2851387140291095E+00
-8.2783653638103800E+00
-8.2771377117530225E+00
-8.2770537694433219E+00
-8.2698763908643773E+00
-8.2698154109902902E+00
-8.2677553340336551E+00
-8.2604970321235509E+00
-8.2600570356946736E+00
-8.2533798994998513E+00
-8.2446969113784085E+00
-8.2446296012099936E+00
-8.2410466589128806E+00
-8.2309303257214594E+00
-8.2307895347573101E+00
-8.2025688128925918E+00
-8.1967688345617287E+00
-8.1935061532649343E+00
-8.1927769731007238E+00
-8.1874603517270792E+00
-8.1872801772718624E+00
-8.1707453570581574E+00
-8.1704844967282586E+00
-8.1618945359637216E+00
-8.1615541180423037E+00
-8.1614883831384297E+00
-8.1608737227463841E+00
-8.1208588094084391E+00
-8.1181266987294602E+00
-8.1158165503786890E+00
-8.1138524803469920E+00
-8.1111656797162794E+00
-8.1088618543964959E+00
-8.1077663451581969E+00
-8.1036532719681205E+00
-8.1022895974059495E+00
-8.0802030977066366E+00
-8.0754134161412114E+00
-8.0723514867299038E+00
-8.0722909367853042E+00
-8.0672293504861550E+00
-8.0671738934680555E+00
-8.0596774496728152E+00
-8.0580803607486757E+00
-8.0515146516770510E+00
-8.0498873536360787E+00
-8.0480672229262584E+00
-8.0461965181530886E+00
-8.0340904112641400E+00
-8.0324547445442036E+00
-8.0284259153242452E+00
-8.0282794476360166E+00
-8.0234707311249949E+00
-8.0208250352639148E+00
-8.0200151407665494E+00
-8.0186782391629663E+00
-8.0179222935057410E+00
-8.0170383222111106E+00
-8.0158010540997573E+00
-8.0115008201509657E+00
-8.0105928547735541E+00
-8.0086764741418044E+00
-8.0086026507797943E+00
-8.0059473313012219E+00
-8.0003818890002556E+00
-7.9978082257802177E+00
-7.9921554889474589E+00
-7.9898247323059230E+00
-7.9861217724812796E+00
-7.9672805420662964E+00
-7.9598524652446478E+00
-7.9577722452882629E+00
-7.9559505986786201E+00
-7.9559092180953481E+00
-7.9496967539337762E+00
-7.9486723442633895E+00
-7.9467731389549279E+00
-7.9466796875739938E+00
-7.9453657822505699E+00
-7.9439193914514128E+00
-7.9437714847319869E+00
-7.9110641503680847E+00
-7.9074008200895403E+00
-7.9028489662972152E+00
-7.9027892253698910E+00
-7.9026049813132699E+00
-7.8992745128591659E+00
-7.8974693929703053E+00
-7.8972790310560077E+00
-7.8929605723431218E+00
-7.8928758165039845E+00
-7.8861902111861228E+00
-7.8861032516809093E+00
-7.8669314412667717E+00
-7.8669214408657790E+00
-7.8571312028504394E+00
-7.8570568553627407E+00
-7.8552908803815686E+00
-7.8552037837071804E+00
-7.8484336488974442E+00
-7.8375141817938223E+00
-7.8374353094575975E+00
-7.8082700743531648E+00
-7.8023173712816298E+00
-7.7990230786679442E+00
-7.7989519953159734E+00
-7.7978267210177741E+00
-7.7974217168900477E+00
-7.7929857322074447E+00
-7.7923182781385343E+00
-7.7900718576066783E+00
-7.7886171219678726E+00
-7.7885522119288693E+00
-7.7876248199884381E+00
-7.7855934620838134E+00
-7.7782553973960473E+00
-7.7766272297689616E+00
-7.7664997445325623E+00
-7.7595428145450738E+00
-7.7569335455745163E+00
-7.7564592135805306E+00
-7.7489488974095995E+00
-7.7488705612974407E+00
-7.7246057480343779E+00
-7.7232050118309754E+00
-7.7164065006924236E+00
-7.7146922699667817E+00
-7.7134155874206938E+00
-7.7129247683389988E+00
-7.6762831870906849E+00
-7.6675198720287447E+00
-7.6668569612160340E+00
-7.6628614365470522E+00
-7.6538806311036396E+00
-7.6538141062205129E+00
-7.6442106552576812E+00
-7.6424974798000758E+00
-7.6411162310072154E+00
-7.6358705420251365E+00
-7.6356577883503656E+00
-7.6330230573816662E+00
-7.6318125809540884E+00
-7.6318012239505499E+00
-7.6316424279467130E+00
-7.6315025002377652E+00
-7.6236258846643006E+00
-7.6234810549649277E+00
-7.6230294045652709E+00
-7.6226648855802637E+00
-7.6196789051610239E+00
-7.6132712065208086E+00
-7.6120222271951432E+00
-7.6118916652361186E+00
-7.6096975285009503E+00
-7.6014786914699135E+00
-7.6010962727750870E+00
-7.5949431322045093E+00
-7.5858202518334839E+00
-7.5855845454532265E+00
-7.5705767244612208E+00
-7.5624624545724881E+00
-7.5607250965358697E+00
-7.5489185544255175E+00
-7.5419640958619603E+00
-7.5403268168808202E+00
-7.5372399233921179E+00
-7.5362412464687019E+00
-7.5337774880469901E+00
-7.5012413123626684E+00
-7.5011755657641883E+00
-7.4936727880253207E+00
-7.4921876170264428E+00
-7.4921195199621957E+00
-7.4917736775979495E+00
-7.4710033560284259E+00
-7.4652494140850960E+00
-7.4576968925883085E+00
-7.4543707624509974E+00
-7.4440068710177547E+00
-7.4439301973547511E+00
-7.4416923731445053E+00
-7.4331212325837752E+00
-7.4308423000973214E+00
-7.4150654847692978E+00
-7.4114008601301684E+00
-7.4103305506095074E+00
-7.4052680722084281E+00
-7.4051917010521047E+00
-7.4041274093848966E+00
-7.3879393865597356E+00
-7.3851026795701893E+00
-7.3794491700110321E+00
-7.3783444505307205E+00
-7.3741792432934199E+00
-7.3729100275054638E+00
-7.3444049246129817E+00
-7.3443965215885978E+00
-7.3355409423425604E+00
-7.3354692879882615E+00
-7.3330163845271423E+00
-7.3326835787323308E+00
-7.3181037164652061E+00
-7.3111938166295962E+00
-7.3100692222498891E+00
-7.3096097691714759E+00
-7.3027328895085892E+00
-7.2994737345362459E+00
-7.2987224545079465E+00
-7.2984668841598808E+00
-7.2966554851977827E+00
-7.2924939217618894E+00
-7.2903805033042657E+00
-7.2833590329104094E+00
-7.2830410444122800E+00
-7.2825441844221350E+00
-7.2824781042149045E+00
-7.2807021147410307E+00
-7.2747209585702644E+00
-7.2721953671079032E+00
-7.2543356495817459E+00
-7.2509132666754956E+00
-7.2451892522486476E+00
-7.2449024042787906E+00
-7.2448013475693882E+00
-7.2428706496898450E+00
-7.2424673270339808E+00
-7.2372837681011957E+00
-7.2370032270369329E+00
-7.2303002303900747E+00
-7.2224534687259494E+00
-7.2222577385767233E+00
-7.2190554692685023E+00
-7.2114449865994326E+00
-7.2081829422661015E+00
-7.2080896103181251E+00
-7.2011474594933613E+00
-7.2010648296259214E+00
-7.1737752951359708E+00
-7.1732648314289502E+00
-7.1731049109247378E+00
-7.1706884237510131E+00
-7.1692353000378120E+00
-7.1654031152996325E+00
-7.1652751314772747E+00
-7.1606463859066851E+00
-7.1585780107921622E+00
-7.1584746024002008E+00
-7.1519569228093465E+00
-7.1487096069583780E+00
-7.1486315395165727E+00
-7.1463707919324602E+00
-7.1462930549683836E+00
-7.1450224453665481E+00
-7.1380531554208302E+00
-7.1373879505836957E+00
-7.1302560358038898E+00
-7.1216688618103063E+00
-7.1207239552390460E+00
-7.1187024591756360E+00
-7.1090308939615019E+00
-7.1087089784083854E+00
-7.1026101969368698E+00
-7.0936674171400229E+00
-7.0936000928546354E+00
-7.0842370823075997E+00
-7.0751700315036201E+00
-7.0746517807747367E+00
-7.0351286056944193E+00
-7.0294797698148708E+00
-7.0277965176849309E+00
-7.0227585517096722E+00
-7.0194522806188724E+00
-7.0175004199992639E+00
-7.0168097764804864E+00
-7.0147973001115904E+00
-7.0124161016099880E+00
-7.0116080849212254E+00
-7.0115199935064529E+00
-7.0092078415539039E+00
-7.0091352818797787E+00
-7.0072176389042715E+00
-7.0048573391737898E+00
-7.0047845700166071E+00
-7.0012183317714545E+00
-6.9996297613355152E+00
-6.9979191756373638E+00
-6.9951393008772866E+00
-6.9916583760918574E+00
-6.9896115583548397E+00
-6.9872478586269446E+00
-6.9844297477793962E+00
-6.9829045411394342E+00
-6.9763287348068701E+00
-6.9755028500230578E+00
-6.9731010620373954E+00
-6.9704974282668157E+00
QETSC: Iter time (min)       =     9 575.90
QETSC: Iter time (max)       =     9 576.32
QETSC: Iter time (avg)       =     9 576.27
QETSC: Bin scores            =     9 539.13 796.49
QETSC: Empty bins            =     9           5
QETSC: Max,min eigs          =     9          44           1
QETSC: Max,min dists         =     9 2.778E-01 7.262E-04
QETSC: Bad bins              =     9          32          32
QETSC: Max neigs bin         =     9          28
QETSC: Max,min dist bins     =     9           4          24
QETSC: Num. of conv. evals   =     9        2941
QETSC: Eigenvalue (1)        =     9  -1.5191903656878662E+01
QETSC: Eigenvalue (nocc)     =     9  -6.9704974282668157E+00
QETSC: Max differrence       =     9   2.1977419492045280E+00
QETSC: Safe iteration        =     9      T
QETSC: Finished iter         =           9
 *****************************************************************
 QETSc: Custers,iter,crange,npcmax,trial          10  0.23868598728227941               64           3
-1.4954094715604533E+01
-1.4738801942501940E+01
-1.4502132467279429E+01
-1.3985869983276361E+01
-1.3688567061811693E+01
-1.3375137860407103E+01
-1.3113317977818825E+01
-1.2875747494974814E+01
-1.2702275726320515E+01
-1.2382327714916954E+01
-1.2062120046360189E+01
-1.1743586801082358E+01
-1.1531591443410793E+01
-1.1293809763334965E+01
-1.0893045084517224E+01
-1.0645290901849185E+01
-1.0407018293840798E+01
-1.0168752444169627E+01
-9.9394940372911869E+00
-9.6724240767724083E+00
-9.4298588983085310E+00
-9.1692053782300658E+00
-8.8955829108113793E+00
-8.6502262653460704E+00
-8.4105290499479839E+00
-8.1608737227463841E+00
-7.8928758165039845E+00
-7.6538141062205129E+00
-7.4103305506095074E+00
-7.1692353000378120E+00
-6.9731010620373954E+00
 QETSC: Bins             =
              -Infinity
-3.7169323148923937E+01
-1.4949846925145408E+01
-1.4669383582009571E+01
-1.4339722235520336E+01
-1.3945457028851123E+01
-1.3637014914835088E+01
-1.3359854142744940E+01
-1.3109255500429693E+01
-1.2844006284247762E+01
-1.2635731046892744E+01
-1.2322123260126583E+01
-1.2021249048963401E+01
-1.1739101686726077E+01
-1.1506927604759959E+01
-1.1208004325674700E+01
-1.0888074434197247E+01
-1.0643492142992514E+01
-1.0403226121115850E+01
-1.0164255982704361E+01
-9.9249821441024437E+00
-9.6669202130521441E+00
-9.4170651982676272E+00
-9.1489353277676919E+00
-8.8919910545122960E+00
-8.6472750673187626E+00
-8.3862146203661112E+00
-8.1408662660774116E+00
-7.8895330138450532E+00
-7.6490123807390971E+00
-7.4077993114089677E+00
-7.1673192076687222E+00
-2.5750135298577597E+00
QETSC: Started iter           10
QETSC: Bin type used         =           7
QETSC: Buffer used           =   2.1977419492045280E+00
QETSC: EPS interval          = -Infinity,    -2.575
QETSC: Inertia type          =          -5
SLEPc: EPSSolve time = 0 2.146e-06
SLEPc: EPSSolve time = 13 -0.000e+00
SLEPc: EPSSolve time = 16 -0.000e+00
SLEPc: EPSSolve time = 17 -0.000e+00
SLEPc: EPSSolve time = 18 -0.000e+00
SLEPc: EPSSolve time = 19 -0.000e+00
SLEPc: EPSSolve time = 20 9.537e-07
SLEPc: EPSSolve time = 21 1.907e-06
SLEPc: EPSSolve time = 1 9.537e-07
SLEPc: EPSSolve time = 2 1.907e-06
SLEPc: EPSSolve time = 3 -0.000e+00
SLEPc: EPSSolve time = 4 9.537e-07
SLEPc: EPSSolve time = 5 9.537e-07
SLEPc: EPSSolve time = 6 9.537e-07
SLEPc: EPSSolve time = 7 9.537e-07
SLEPc: EPSSolve time = 8 9.537e-07
SLEPc: EPSSolve time = 9 1.192e-06
SLEPc: EPSSolve time = 10 9.537e-07
SLEPc: EPSSolve time = 11 -0.000e+00
SLEPc: EPSSolve time = 12 9.537e-07
SLEPc: EPSSolve time = 14 -0.000e+00
SLEPc: EPSSolve time = 15 -0.000e+00
SLEPc: EPSSolve time = 27 2.889e+00
SLEPc: EPSSolve time = 22 3.024e+00
SLEPc: EPSSolve time = 28 3.094e+00
SLEPc: EPSSolve time = 24 3.123e+00
SLEPc: EPSSolve time = 23 3.132e+00
SLEPc: EPSSolve time = 30 3.134e+00
SLEPc: EPSSolve time = 25 3.172e+00
SLEPc: EPSSolve time = 26 3.284e+00
SLEPc: EPSSolve time = 29 4.301e+00
SLEPc: EPSSolve time = 31 2.293e+02
 QETSC: ERROR Rank, nconv, nocc           0        1019        1022
 QETSC: ERROR Rank, nconv, nocc          16        1019        1022
 QETSC: ERROR Rank, nconv, nocc          28        1019        1022
 QETSC: ERROR Rank, nconv, nocc          22        1019        1022
 QETSC: ERROR Rank, nconv, nocc          24        1019        1022
 QETSC: ERROR Rank, nconv, nocc          31        1019        1022
 QETSC: ERROR Rank, nconv, nocc          18        1019        1022
 QETSC: ERROR Rank, nconv, nocc           5        1019        1022
 QETSC: ERROR Rank, nconv, nocc          29        1019        1022
 QETSC: ERROR Rank, nconv, nocc           9        1019        1022
 QETSC: ERROR Rank, nconv, nocc          21        1019        1022
 QETSC: ERROR Rank, nconv, nocc           4        1019        1022
 QETSC: ERROR Rank, nconv, nocc          17        1019        1022
 QETSC: ERROR Rank, nconv, nocc           8        1019        1022
 QETSC: ERROR Rank, nconv, nocc           1        1019        1022
 QETSC: ERROR Rank, nconv, nocc          26        1019        1022
 QETSC: ERROR Rank, nconv, nocc          25        1019        1022
 QETSC: ERROR Rank, nconv, nocc           6        1019        1022
 QETSC: ERROR Rank, nconv, nocc          10        1019        1022
 QETSC: ERROR Rank, nconv, nocc          19        1019        1022
 QETSC: ERROR Rank, nconv, nocc          11        1019        1022
 QETSC: ERROR Rank, nconv, nocc          23        1019        1022
 QETSC: ERROR Rank, nconv, nocc          30        1019        1022
 QETSC: ERROR Rank, nconv, nocc           2        1019        1022
 QETSC: ERROR Rank, nconv, nocc          20        1019        1022
 QETSC: ERROR Rank, nconv, nocc          27        1019        1022
 QETSC: ERROR Rank, nconv, nocc          14        1019        1022
 QETSC: ERROR Rank, nconv, nocc          15        1019        1022
 QETSC: ERROR Rank, nconv, nocc          12        1019        1022
 QETSC: ERROR Rank, nconv, nocc           3        1019        1022
 QETSC: ERROR Rank, nconv, nocc          13        1019        1022
 QETSC: ERROR Rank, nconv, nocc           7        1019        1022
