s.subSiesta: Submission time = 19s04m08h
s.subSiesta: Job name = q32_b312_g1_b91_s32_n32_c16
s.subSiesta: Number of nodes = 32
s.subSiesta: Number of cores = 512
s.subSiesta: Number of cores/node = 16
s.subSiesta: Number of slices = 32
s.subSiesta: Mapping = ABCDET
19s04m08h
-ioptbin 3
-ioptinertia 1
-ioptleft 2
-roptleft -2.3
-roptright 0.
-roptdiff 0.1
#-writeeigs 1
-roptbuffer 0.1
-isglobal 1
# A chain of identical atoms (instead of an xyz file) can be specified with the following options
#-N 10 # Number of atoms
#-Z 8 # Atomic number
#-c 32 # Maximum number of interactions of an atom

# A petsc matrix (binary) can be given
#-method file
#-fA '/Volumes/s/matrices/petscbinary/graphene_xxs_A'
#-fB '/Volumes/s/matrices/petscbinary/graphene_xxs_B'
#-scfthresh 1.e-3

#PETSc options

-log_view
#-mat_mumps_icntl_13 1 #turn off scaLAPACK for matrix inertia
#-mat_mumps_icntl_14 40 # for MUMPS error -9, which means that MUMPS didn't allocate a big enough workspace
#-mat_mumps_icntl_24 1 #null pivot row detection for matrix inertia
#-mat_mumps_icntl_23 0
#-mat_mumps_icntl_28 1
-mat_mumps_icntl_28 2
-mat_mumps_icntl_29 1 # ptscotch
#-mat_mumps_icntl_29 2 # parmetis
#-malloc_info
#-mat_view ::ascii_info
#-mat_getrow_uppertriangular 1
#-st_type sinvert
#-st_ksp_type preonly
#-st_pc_type cholesky
-st_pc_factor_mat_solver_package mumps
#-st_pc_factor_mat_solver_package mkl_pardiso
#-mat_mkl_pardiso_65 2
#SLEPc options

#-eps_krylovschur_partitions 1
#-eps_krylovschur_nev 120
-eps_interval -2.3,0.
#-eps_tol  1.e-8
-eps_krylovschur_detect_zeros 0
#-eps_purify 1
SystemName liquid_D2O_32
SystemLabel D2O_32

#UseTreeTimer .true.
DM.MixingWeight 0.3
DM.NumberPulay 3

SolutionMethod  slepc1 #slepc0 for the older method
#SolutionMethod diagon
BlockSize 91

##################################################
# Do not change below this line                  #
##################################################

%block SuperCell
1 0 0
0 1 0
0 0 1
%endblock SuperCell

NumberOfAtoms 96
NumberOfSpecies 2

xc.functional GGA
xc.authors PBE 
MeshCutoff 150.0 Ry

%block ChemicalSpeciesLabel
  1   8  O
  2   1  H  
%endblock ChemicalSpeciesLabel

#%block AtomicMass
#  2   2.0
#%endblock AtomicMass

%block PAO.Basis # qz+tp+dp'
O 4
n=2 0 4 E 50.0 8.0
 10.0 5.0 3.5 2.0
n=2 1 4 E 10.0 8.0
 10.0 5.0 3.5 2.0
n=3 2 3 E 40.0 9.0 Q 6.0 0.00
 10.0 2.0 3.0
n=4 3 2 E 50.0 9.0 Q 17.0 0.40
 10.0 1.7
H 3
n=1 0 4 E 50.0 9.0
 10.0 5.0 3.5 2.0
n=2 1 3 E 50.0 9.0 Q 3.5 0.00
 10.0 2.0 4.0
n=3 2 2 E 50.0 9.0 Q 16.0 0.80
 10.0 2.0
%endblock PAO.Basis


LatticeConstant 9.856391407574419 Ang
%block LatticeVectors   
  1.0  0.0  0.0
  0.0  1.0  0.0
  0.0  0.0  1.0
%endblock LatticeVectors   

AtomicCoordinatesFormat NotScaledCartesianAng
%block AtomicCoordinatesAndAtomicSpecies < coord32.data
Siesta Version: siesta-trunk-492
Architecture  : powerpc64-unknown-linux-gnu--unknown
Compiler flags: mpixlf90_r -g -O3 -qhot=level=0 -qsimd=auto -qmaxmem=-1 -qstrict -qstrict_indduction -I/home/keceli/scratch2/petsc/include -I/home/keceli/scratch2/petsc/arch-xl/include -I/bgsys/drivers/V1R2M4/ppc64/comm/include -I/bgsys/drivers/V1R2M4/ppc64/comm/lib/xl -I/bgsys/drivers/V1R2M4/ppc64 -I/bgsys/drivers/V1R2M4/ppc64/comm/sys/include -I/bgsys/drivers/V1R2M4/ppc64/spi/include -I/bgsys/drivers/V1R2M4/ppc64/spi/include/kernel/cnk -I/home/keceli/scratch2/keceli-slice/include -I/home/keceli/scratch2/keceli-slice/arch-xl/include -g -qhot=level=0 -qsimd=auto -qmaxmem=-1 -qstrict -qstrict_induction
PP flags      : -WF,-DBSC_CELLXC -WF,-DMPI -WF,-DFC_HAVE_ABORT 
PARALLEL version

* Running on  512 nodes in parallel
>> Start of run:  25-SEP-2016   8:05:37

                           ***********************       
                           *  WELCOME TO SIESTA  *       
                           ***********************       
WARNING: Siesta is reading its input from file INPUT_DEBUG

reinit: -----------------------------------------------------------------------
reinit: System Name: liquid_D2O_32
reinit: -----------------------------------------------------------------------
reinit: System Label: D2O_32                                                      
reinit: -----------------------------------------------------------------------

initatom: Reading input for the pseudopotentials and atomic orbitals ----------
Species number:   1 Atomic number:    8 Label: O
Species number:   2 Atomic number:    1 Label: H
 
Ground state valence configuration:   2s02  2p04
Reading pseudopotential information in formatted form from O.psf

Valence configuration for pseudopotential generation:
2s( 2.00) rc: 1.14
2p( 4.00) rc: 1.14
3d( 0.00) rc: 1.14
4f( 0.00) rc: 1.14
Ground state valence configuration:   1s01
Reading pseudopotential information in formatted form from H.psf

Valence configuration for pseudopotential generation:
1s( 0.60) rc: 1.25
2p( 0.00) rc: 1.25
3d( 0.00) rc: 1.25
4f( 0.00) rc: 1.25
For O, standard SIESTA heuristics set lmxkb to 4
 (one more than the basis l, including polarization orbitals).
Use PS.lmax or PS.KBprojectors blocks to override.
Warning: For O lmxkb would have been set to 4
Setting it to maximum value of 3 (f projector)
For H, standard SIESTA heuristics set lmxkb to 3
 (one more than the basis l, including polarization orbitals).
Use PS.lmax or PS.KBprojectors blocks to override.

<basis_specs>
===============================================================================
O                    Z=   8    Mass=  16.000        Charge= 0.17977+309
Lmxo=3 Lmxkb= 3    BasisType=split      Semic=F
L=0  Nsemic=0  Cnfigmx=2
          n=1  nzeta=4  polorb=0
            splnorm:   0.15000    
               vcte:    50.000    
               rinn:    8.0000    
               qcoe:    0.0000    
               qyuk:    0.0000    
               qwid:   0.10000E-01
                rcs:    10.000      5.0000      3.5000      2.0000    
            lambdas:    1.0000      1.0000      1.0000      1.0000    
L=1  Nsemic=0  Cnfigmx=2
          n=1  nzeta=4  polorb=0
            splnorm:   0.15000    
               vcte:    10.000    
               rinn:    8.0000    
               qcoe:    0.0000    
               qyuk:    0.0000    
               qwid:   0.10000E-01
                rcs:    10.000      5.0000      3.5000      2.0000    
            lambdas:    1.0000      1.0000      1.0000      1.0000    
L=2  Nsemic=0  Cnfigmx=3
          n=1  nzeta=3  polorb=0
            splnorm:   0.15000    
               vcte:    40.000    
               rinn:    9.0000    
               qcoe:    6.0000    
               qyuk:    0.0000    
               qwid:   0.10000E-01
                rcs:    10.000      2.0000      3.0000    
            lambdas:    1.0000      1.0000      1.0000    
L=3  Nsemic=0  Cnfigmx=4
          n=1  nzeta=2  polorb=0
            splnorm:   0.15000    
               vcte:    50.000    
               rinn:    9.0000    
               qcoe:    17.000    
               qyuk:   0.40000    
               qwid:   0.10000E-01
                rcs:    10.000      1.7000    
            lambdas:    1.0000      1.0000    
-------------------------------------------------------------------------------
L=0  Nkbl=1  erefs: 0.17977+309
L=1  Nkbl=1  erefs: 0.17977+309
L=2  Nkbl=1  erefs: 0.17977+309
L=3  Nkbl=1  erefs: 0.17977+309
===============================================================================
</basis_specs>

atom: Called for O                     (Z =   8)

read_vps: Pseudopotential generation method:
read_vps: ATM3      Troullier-Martins                       
Total valence charge:    6.00000

read_vps: Pseudopotential includes a core correction:
read_vps: Pseudo-core for xc-correction

xc_check: Exchange-correlation functional:
xc_check: GGA Perdew, Burke & Ernzerhof 1996
V l=0 = -2*Zval/r beyond r=  1.1278
V l=1 = -2*Zval/r beyond r=  1.1278
V l=2 = -2*Zval/r beyond r=  1.1278
V l=3 = -2*Zval/r beyond r=  1.1278
All V_l potentials equal beyond r=  1.1278
This should be close to max(r_c) in ps generation
All pots = -2*Zval/r beyond r=  1.1278

VLOCAL1: 99.0% of the norm of Vloc inside     34.126 Ry
VLOCAL1: 99.9% of the norm of Vloc inside     77.774 Ry
atom: Maximum radius for 4*pi*r*r*local-pseudopot. charge    1.37759
atom: Maximum radius for r*vlocal+2*Zval:    1.18566
GHOST: No ghost state for L =  0
GHOST: No ghost state for L =  1
GHOST: No ghost state for L =  2
GHOST: No ghost state for L =  3

KBgen: Kleinman-Bylander projectors: 
   l= 0   rc=  1.262145   el= -1.757696   Ekb=  9.253654   kbcos=  0.328369
   l= 1   rc=  1.262145   el= -0.664256   Ekb= -7.897175   kbcos= -0.393093
   l= 2   rc=  1.343567   el=  0.002031   Ekb= -1.922379   kbcos= -0.003517
   l= 3   rc=  1.394919   el=  0.003153   Ekb= -0.738278   kbcos= -0.000358

KBgen: Total number of  Kleinman-Bylander projectors:   16
atom: -------------------------------------------------------------------------

atom: SANKEY-TYPE ORBITALS:
atom: Selected multiple-zeta basis: split     

SPLIT: Orbitals with angular momentum L= 0

SPLIT: Basis orbitals for state 2s

   izeta = 1
                 lambda =    1.000000
                     rc =   10.181049
                 energy =   -1.757767
                kinetic =    1.546187
    potential(screened) =   -3.303954
       potential(ionic) =  -11.175858

   izeta = 2
                 rmatch =    5.055603
              splitnorm =    0.001043
                 energy =   -1.756217
* WARNING: effective split_norm is quite small. Orbitals will be very similar.
                kinetic =    1.590301
    potential(screened) =   -3.346518
       potential(ionic) =  -11.267994

   izeta = 3
                 rmatch =    3.562532
              splitnorm =    0.023118
                 energy =   -1.724097
* WARNING: effective split_norm is quite small. Orbitals will be very similar.
                kinetic =    1.812689
    potential(screened) =   -3.536786
       potential(ionic) =  -11.661476

   izeta = 4
                 rmatch =    2.004519
              splitnorm =    0.368983
                 energy =   -0.954778
                kinetic =    3.368396
    potential(screened) =   -4.323174
       potential(ionic) =  -13.178438

SPLIT: Orbitals with angular momentum L= 1

SPLIT: Basis orbitals for state 2p

   izeta = 1
                 lambda =    1.000000
                     rc =   10.181049
                 energy =   -0.664314
                kinetic =    4.714332
    potential(screened) =   -5.378647
       potential(ionic) =  -12.967201

   izeta = 2
                 rmatch =    5.055603
              splitnorm =    0.008251
                 energy =   -0.656950
* WARNING: effective split_norm is quite small. Orbitals will be very similar.
                kinetic =    4.990409
    potential(screened) =   -5.647359
       potential(ionic) =  -13.410842

   izeta = 3
                 rmatch =    3.562532
              splitnorm =    0.055493
                 energy =   -0.601809
                kinetic =    5.759592
    potential(screened) =   -6.361401
       potential(ionic) =  -14.486952

   izeta = 4
                 rmatch =    2.004519
              splitnorm =    0.336744
                 energy =    0.137909
                kinetic =    9.626817
    potential(screened) =   -9.488908
       potential(ionic) =  -18.577571

SPLIT: Orbitals with angular momentum L= 2

SPLIT: Basis orbitals for state 3d
Charge confinement: Q:     6.0000

   izeta = 1
                 lambda =    1.000000
                     rc =   10.181049
                 energy =    2.007653
                kinetic =    3.859620
    potential(screened) =   -1.851967
       potential(ionic) =   -7.803212

   izeta = 2
                 rmatch =    2.004519
              splitnorm =    0.637208
                 energy =    6.650039
                kinetic =   11.560126
    potential(screened) =   -4.910087
       potential(ionic) =  -13.161977

   izeta = 3
                 rmatch =    2.990543
              splitnorm =    0.263953
                 energy =    3.559882
                kinetic =    6.528543
    potential(screened) =   -2.968661
       potential(ionic) =  -10.107962

SPLIT: Orbitals with angular momentum L= 3

SPLIT: Basis orbitals for state 4f
Charge confinement: Q:    17.0000

   izeta = 1
                 lambda =    1.000000
                     rc =   10.181049
                 energy =    4.609453
                kinetic =    6.179676
    potential(screened) =   -1.570223
       potential(ionic) =   -7.410991

   izeta = 2
                 rmatch =    1.725262
              splitnorm =    0.752552
                 energy =   15.780374
                kinetic =   20.445907
    potential(screened) =   -4.665533
       potential(ionic) =  -12.986389
atom: Total number of Sankey-type orbitals: 45

atm_pop: Valence configuration (for local Pseudopot. screening):
 2s( 2.00)                                                            
 2p( 4.00)                                                            
 3d( 0.00)                                                            
 4f( 0.00)                                                            
Vna: chval, zval:    6.00000   6.00000

Vna:  Cut-off radius for the neutral-atom potential:  10.181049
comcore: Pseudo-core radius Rcore=  1.377587

atom: _________________________________________________________________________

<basis_specs>
===============================================================================
H                    Z=   1    Mass=  1.0100        Charge= 0.17977+309
Lmxo=2 Lmxkb= 3    BasisType=split      Semic=F
L=0  Nsemic=0  Cnfigmx=1
          n=1  nzeta=4  polorb=0
            splnorm:   0.15000    
               vcte:    50.000    
               rinn:    9.0000    
               qcoe:    0.0000    
               qyuk:    0.0000    
               qwid:   0.10000E-01
                rcs:    10.000      5.0000      3.5000      2.0000    
            lambdas:    1.0000      1.0000      1.0000      1.0000    
L=1  Nsemic=0  Cnfigmx=2
          n=1  nzeta=3  polorb=0
            splnorm:   0.15000    
               vcte:    50.000    
               rinn:    9.0000    
               qcoe:    3.5000    
               qyuk:    0.0000    
               qwid:   0.10000E-01
                rcs:    10.000      2.0000      4.0000    
            lambdas:    1.0000      1.0000      1.0000    
L=2  Nsemic=0  Cnfigmx=3
          n=1  nzeta=2  polorb=0
            splnorm:   0.15000    
               vcte:    50.000    
               rinn:    9.0000    
               qcoe:    16.000    
               qyuk:   0.80000    
               qwid:   0.10000E-01
                rcs:    10.000      2.0000    
            lambdas:    1.0000      1.0000    
-------------------------------------------------------------------------------
L=0  Nkbl=1  erefs: 0.17977+309
L=1  Nkbl=1  erefs: 0.17977+309
L=2  Nkbl=1  erefs: 0.17977+309
L=3  Nkbl=1  erefs: 0.17977+309
===============================================================================
</basis_specs>

atom: Called for H                     (Z =   1)

read_vps: Pseudopotential generation method:
read_vps: ATM 3.2.2 Troullier-Martins                       
Total valence charge:    0.60000

atom: Pseudopotential generated from an ionic configuration
atom: with net charge 0.40

xc_check: Exchange-correlation functional:
xc_check: GGA Perdew, Burke & Ernzerhof 1996
xc_check: WARNING: Pseudopotential generated with GGA revPBE functional
V l=0 = -2*Zval/r beyond r=  1.2343
V l=1 = -2*Zval/r beyond r=  1.2189
V l=2 = -2*Zval/r beyond r=  1.2189
V l=3 = -2*Zval/r beyond r=  1.2038
All V_l potentials equal beyond r=  1.2343
This should be close to max(r_c) in ps generation
All pots = -2*Zval/r beyond r=  1.2343

VLOCAL1: 99.0% of the norm of Vloc inside     28.493 Ry
VLOCAL1: 99.9% of the norm of Vloc inside     64.935 Ry
atom: Maximum radius for 4*pi*r*r*local-pseudopot. charge    1.45251
atom: Maximum radius for r*vlocal+2*Zval:    1.21892
GHOST: No ghost state for L =  0
GHOST: No ghost state for L =  1
GHOST: No ghost state for L =  2
GHOST: No ghost state for L =  3

KBgen: Kleinman-Bylander projectors: 
   l= 0   rc=  1.364359   el= -0.835481   Ekb= -2.050473   kbcos= -0.374935
   l= 1   rc=  1.434438   el= -0.083696   Ekb= -0.439790   kbcos= -0.040392
   l= 2   rc=  1.470814   el= -0.018512   Ekb= -0.135383   kbcos= -0.004767
   l= 3   rc=  1.508111   el= -0.010355   Ekb= -0.058408   kbcos= -0.000784

KBgen: Total number of  Kleinman-Bylander projectors:   16
atom: -------------------------------------------------------------------------

atom: SANKEY-TYPE ORBITALS:
atom: Selected multiple-zeta basis: split     

atom: basis set generated from the ionic configuration used
atom: to generate the pseudopotential

SPLIT: Orbitals with angular momentum L= 0

SPLIT: Basis orbitals for state 1s

   izeta = 1
                 lambda =    1.000000
                     rc =    9.971704
                 energy =   -0.835496
                kinetic =    1.039073
    potential(screened) =   -1.874569
       potential(ionic) =   -2.037700

   izeta = 2
                 rmatch =    5.075940
              splitnorm =    0.029735
                 energy =   -0.816789
* WARNING: effective split_norm is quite small. Orbitals will be very similar.
                kinetic =    1.252128
    potential(screened) =   -2.068916
       potential(ionic) =   -2.226196

   izeta = 3
                 rmatch =    3.487864
              splitnorm =    0.176430
                 energy =   -0.691872
                kinetic =    1.782572
    potential(screened) =   -2.474444
       potential(ionic) =   -2.615176

   izeta = 4
                 rmatch =    2.011274
              splitnorm =    0.598000
                 energy =    0.301433
                kinetic =    3.884637
    potential(screened) =   -3.583203
       potential(ionic) =   -3.672637

SPLIT: Orbitals with angular momentum L= 1

SPLIT: Basis orbitals for state 2p
Charge confinement: Q:     3.5000

   izeta = 1
                 lambda =    1.000000
                     rc =    9.971704
                 energy =    0.711778
                kinetic =    1.888566
    potential(screened) =   -1.176788
       potential(ionic) =   -1.368090

   izeta = 2
                 rmatch =    2.011274
              splitnorm =    0.691729
                 energy =    4.504307
                kinetic =    6.792143
    potential(screened) =   -2.287836
       potential(ionic) =   -2.425880

   izeta = 3
                 rmatch =    4.052721
              splitnorm =    0.089367
                 energy =    1.150580
                kinetic =    2.529067
    potential(screened) =   -1.378487
       potential(ionic) =   -1.566684

SPLIT: Orbitals with angular momentum L= 2

SPLIT: Basis orbitals for state 3d
Charge confinement: Q:    16.0000

   izeta = 1
                 lambda =    1.000000
                     rc =    9.971704
                 energy =    3.555650
                kinetic =    4.803510
    potential(screened) =   -1.247860
       potential(ionic) =   -1.438034

   izeta = 2
                 rmatch =    2.011274
              splitnorm =    0.525433
                 energy =    9.861824
                kinetic =   11.896576
    potential(screened) =   -2.034751
       potential(ionic) =   -2.186933
atom: Total number of Sankey-type orbitals: 23

atm_pop: Valence configuration (for local Pseudopot. screening):
 1s( 1.00)                                                            
 2p( 0.00)                                                            
 3d( 0.00)                                                            
Vna: chval, zval:    1.00000   1.00000

Vna:  Cut-off radius for the neutral-atom potential:   9.971704

atom: _________________________________________________________________________

prinput: Basis input ----------------------------------------------------------

PAO.BasisType split     

%block ChemicalSpeciesLabel
    1    8 O                       # Species index, atomic number, species label
    2    1 H                       # Species index, atomic number, species label
%endblock ChemicalSpeciesLabel

%block PAO.Basis                 # Define Basis set
O                     4                    # Species label, number of l-shells
 n=2   0   4                         # n, l, Nzeta 
  10.181      5.056      3.563      2.005   
   1.000      1.000      1.000      1.000   
 n=2   1   4                         # n, l, Nzeta 
  10.181      5.056      3.563      2.005   
   1.000      1.000      1.000      1.000   
 n=3   2   3                         # n, l, Nzeta 
  10.181      2.005      2.991   
   1.000      1.000      1.000   
 n=4   3   2                         # n, l, Nzeta 
  10.181      1.725   
   1.000      1.000   
H                     3   0.400            # Label, l-shells, ionic net charge
 n=1   0   4                         # n, l, Nzeta 
   9.972      5.076      3.488      2.011   
   1.000      1.000      1.000      1.000   
 n=2   1   3                         # n, l, Nzeta 
   9.972      2.011      4.053   
   1.000      1.000      1.000   
 n=3   2   2                         # n, l, Nzeta 
   9.972      2.011   
   1.000      1.000   
%endblock PAO.Basis

prinput: ----------------------------------------------------------------------

coor:   Atomic-coordinates input format  =     Cartesian coordinates
coor:                                          (in Angstroms)

siesta: Atomic coordinates (Bohr) and species
siesta:      3.11805   4.32747  14.55090  1        1
siesta:      2.19208   4.72432  16.06268  2        2
siesta:      1.88973   3.53379  13.47375  2        3
siesta:      9.78879  17.85792  16.42173  1        4
siesta:      8.31480  18.12248  15.40127  2        5
siesta:      9.69430  16.11937  16.91306  2        6
siesta:     12.94463   8.91951   5.14006  1        7
siesta:     12.90683   8.35259   3.42041  2        8
siesta:     14.45641   8.20141   5.82036  2        9
siesta:     10.58247   7.14317  18.42484  1       10
siesta:      9.95886   7.06758  16.72408  2       11
siesta:      9.08959   7.23765  19.42639  2       12
siesta:      0.66140   8.93841  13.68162  1       13
siesta:     -0.98266   9.67540  13.66273  2       14
siesta:      0.49133   7.46442  14.70208  2       15
siesta:      5.74477   0.49133  12.62338  1       16
siesta:      7.23765   0.73699  11.62182  2       17
siesta:      5.27234   2.15429  13.15250  2       18
siesta:      1.37950  17.76343  18.16028  1       19
siesta:     -0.05669  16.70519  17.85792  2       20
siesta:      1.09604  18.48153  19.78544  2       21
siesta:     11.50844  13.81390   5.53690  1       22
siesta:      9.76989  13.62493   5.02667  2       23
siesta:     12.01866  12.15094   6.00933  2       24
siesta:     12.98242  15.26899  10.31791  1       25
siesta:     13.88949  13.88949  11.01711  2       26
siesta:     12.43440  14.66428   8.69274  2       27
siesta:      2.57003   6.84081   9.41084  1       28
siesta:      4.19519   6.31169  10.01555  2       29
siesta:      1.68186   7.36993  10.90372  2       30
siesta:      5.38572   1.02045   3.25033  1       31
siesta:      4.95108   1.54958   1.56847  2       32
siesta:      3.77945   0.86927   4.10071  2       33
siesta:      5.76367  14.32413   3.81725  1       34
siesta:      5.99043  16.10047   3.49599  2       35
siesta:      5.63139  14.19185   5.61249  2       36
siesta:      5.82036   9.78879  15.51466  1       37
siesta:      5.17785  10.37460  17.10203  2       38
siesta:      4.36527   9.75099  14.41862  2       39
siesta:     12.11315   4.72432  12.98242  1       40
siesta:     12.03756   2.92908  13.26588  2       41
siesta:     13.85170   5.06447  12.60448  2       42
siesta:     14.47531   0.00000   4.08181  1       43
siesta:     12.79345  -0.37795   4.62983  2       44
siesta:     14.22964   1.02045   2.60782  2       45
siesta:      9.22187  10.69585  11.69741  1       46
siesta:      8.18252  10.26122  13.11470  2       47
siesta:      9.54312   9.10848  10.86593  2       48
siesta:      2.92908  11.11159   1.28501  1       49
siesta:      3.83615  12.39661   2.15429  2       50
siesta:      1.19053  11.58403   1.45509  2       51
siesta:      2.70231  15.11782  14.17295  1       52
siesta:      1.75745  13.88949  15.09892  2       53
siesta:      2.55113  16.62960  15.17451  2       54
siesta:     15.28789  14.17295  17.02644  1       55
siesta:     15.81701  13.88949  18.72719  2       56
siesta:     13.85170  15.25010  17.17762  2       57
siesta:     17.49887   5.10226  -0.26456  1       58
siesta:     17.57446   5.29124   1.53068  2       59
siesta:     15.94929   4.19519  -0.54802  2       60
siesta:      6.55735   7.21876   2.79680  1       61
siesta:      5.55580   8.73054   2.85349  2       62
siesta:      5.36682   5.87705   3.11805  2       63
siesta:      0.03779   7.19986   4.72432  1       64
siesta:      0.64251   7.42663   6.40617  2       65
siesta:      1.36060   7.88016   3.68497  2       66
siesta:     17.23431   2.66451  11.28167  1       67
siesta:     17.76343   0.94486  11.01711  2       68
siesta:     17.04534   3.34482   9.59981  2       69
siesta:      7.95575   5.68808  10.16673  1       70
siesta:      9.31635   5.31013  11.30057  2       71
siesta:      8.01244   4.36527   8.93841  2       72
siesta:     16.83747  13.54934   3.55269  1       73
siesta:     15.23120  13.47375   4.38417  2       74
siesta:     17.85792  14.56979   4.62983  2       75
siesta:     17.97130  16.00599   9.92107  1       76
siesta:     18.95396  15.68473  11.39505  2       77
siesta:     16.25165  15.94929  10.50688  2       78
siesta:     14.17295  10.84703  13.00132  1       79
siesta:     14.39972  12.20764  14.17295  2       80
siesta:     12.39661  10.82814  12.68007  2       81
siesta:      9.01400   0.69920   6.78412  1       82
siesta:      8.42818  -0.83148   7.54001  2       83
siesta:      8.08803   0.83148   5.23454  2       84
siesta:      6.02823  14.58869   9.16518  1       85
siesta:      7.14317  13.22809   9.63761  2       86
siesta:      5.78256  15.51466  10.69585  2       87
siesta:      0.77479  18.50043   5.53690  1       88
siesta:      0.56692  17.82012   7.19986  2       89
siesta:     -0.90707  18.65160   4.89439  2       90
siesta:     13.03912   2.70231  18.31145  1       91
siesta:     11.98087   4.15740  18.27366  2       92
siesta:     11.99977   1.34171  17.72564  2       93
siesta:      9.63761  12.92573  17.66895  1       94
siesta:      8.18252  12.26433  16.83747  2       95
siesta:     10.48798  11.45174  18.31145  2       96

siesta: System type = bulk      

initatomlists: Number of atoms, orbitals, and projectors:     96  2912  1536

siesta: ******************** Simulation parameters ****************************
siesta:
siesta: The following are some of the parameters of the simulation.
siesta: A complete list of the parameters used, including default values,
siesta: can be found in file out.fdf
siesta:
redata: Non-Collinear-spin run           =     F
redata: SpinPolarized (Up/Down) run      =     F
redata: Number of spin components        =     1
redata: Long output                      =     F
redata: Number of Atomic Species         =        2
redata: Charge density info will appear in .RHO file
redata: Write Mulliken Pop.              =     NO
redata: Mesh Cutoff                      =   150.0000  Ry
redata: Net charge of the system         =     0.0000 |e|
redata: Min. number of SCF Iter          =        0
redata: Max. number of SCF Iter          =       50
redata: Mix DM or H after convergence    =     F
redata: Recompute H after scf cycle      =     F
redata: Performing Pulay mixing using    =     3 iterations
redata: Mix DM in first SCF step ?       =     F
redata: Write Pulay info on disk?        =     F
redata: Discard 1st Pulay DM after  kick =     F
redata: New DM Mixing Weight             =     0.3000
redata: New DM Occupancy tolerance       = 0.000000000001
redata: No kicks to SCF
redata: DM Mixing Weight for Kicks       =     0.5000
redata: DM Tolerance for SCF             =     0.000100
redata: Require (free) Energy convergence in SCF =     F
redata: DM (free)Energy tolerance for SCF =     0.000010 eV
redata: Require Harris convergence for SCF =     F
redata: DM Harris energy tolerance for SCF =     0.000010 eV
redata: Using Saved Data (generic)   =     F
redata: Use continuation files for DM    =     F
redata: Neglect nonoverlap interactions  =     F
redata: Method of Calculation            =     old SLEPc
redata: Fix the spin of the system       =     F
redata: Dynamics option                  =     Single-point calculation
redata: ***********************************************************************
Total number of electrons:   256.000000
Total ionic charge:   256.000000

* ProcessorY, Blocksize:   16  91


* Orbital distribution balance (max,min):    91     0

 Kpoints in:  1 . Kpoints trimmed:  1

siesta: k-grid: Number of k-points =     1
siesta: k-grid: Cutoff (effective) =     4.928 Ang
siesta: k-grid: Supercell and displacements
siesta: k-grid:    1   0   0      0.000
siesta: k-grid:    0   1   0      0.000
siesta: k-grid:    0   0   1      0.000

                     ====================================
                        Single-point calculation
                     ====================================

outcell: Unit cell vectors (Ang):
        9.856391    0.000000    0.000000
        0.000000    9.856391    0.000000
        0.000000    0.000000    9.856391

outcell: Cell vector modules (Ang)   :    9.856391    9.856391    9.856391
outcell: Cell angles (23,13,12) (deg):     90.0000     90.0000     90.0000
outcell: Cell volume (Ang**3)        :    957.5332
 Folding of H and S is implicitly performed
New_DM. Step:     1
Initializing Density Matrix...
New grid distribution:   1
           1       1:   40    1:    3    1:    2
           2       1:   40    1:    3    3:    4
           3       1:   40    1:    3    5:    6
           4       1:   40    1:    3    7:    8
           5       1:   40    1:    3    9:   10
           6       1:   40    1:    3   11:   12
           7       1:   40    1:    3   13:   14
           8       1:   40    1:    3   15:   16
           9       1:   40    1:    3   17:   17
          10       1:   40    1:    3   18:   18
          11       1:   40    1:    3   19:   19
          12       1:   40    1:    3   20:   20
          13       1:   40    1:    3   21:   21
          14       1:   40    1:    3   22:   22
          15       1:   40    1:    3   23:   23
          16       1:   40    1:    3   24:   24
          17       1:   40    1:    3   25:   25
          18       1:   40    1:    3   26:   26
          19       1:   40    1:    3   27:   27
          20       1:   40    1:    3   28:   28
          21       1:   40    1:    3   29:   29
          22       1:   40    1:    3   30:   30
          23       1:   40    1:    3   31:   31
          24       1:   40    1:    3   32:   32
          25       1:   40    1:    3   33:   33
          26       1:   40    1:    3   34:   34
          27       1:   40    1:    3   35:   35
          28       1:   40    1:    3   36:   36
          29       1:   40    1:    3   37:   37
          30       1:   40    1:    3   38:   38
          31       1:   40    1:    3   39:   39
          32       1:   40    1:    3   40:   40
          33       1:   40    4:    6    1:    2
          34       1:   40    4:    6    3:    4
          35       1:   40    4:    6    5:    6
          36       1:   40    4:    6    7:    8
          37       1:   40    4:    6    9:   10
          38       1:   40    4:    6   11:   12
          39       1:   40    4:    6   13:   14
          40       1:   40    4:    6   15:   16
          41       1:   40    4:    6   17:   17
          42       1:   40    4:    6   18:   18
          43       1:   40    4:    6   19:   19
          44       1:   40    4:    6   20:   20
          45       1:   40    4:    6   21:   21
          46       1:   40    4:    6   22:   22
          47       1:   40    4:    6   23:   23
          48       1:   40    4:    6   24:   24
          49       1:   40    4:    6   25:   25
          50       1:   40    4:    6   26:   26
          51       1:   40    4:    6   27:   27
          52       1:   40    4:    6   28:   28
          53       1:   40    4:    6   29:   29
          54       1:   40    4:    6   30:   30
          55       1:   40    4:    6   31:   31
          56       1:   40    4:    6   32:   32
          57       1:   40    4:    6   33:   33
          58       1:   40    4:    6   34:   34
          59       1:   40    4:    6   35:   35
          60       1:   40    4:    6   36:   36
          61       1:   40    4:    6   37:   37
          62       1:   40    4:    6   38:   38
          63       1:   40    4:    6   39:   39
          64       1:   40    4:    6   40:   40
          65       1:   40    7:    9    1:    2
          66       1:   40    7:    9    3:    4
          67       1:   40    7:    9    5:    6
          68       1:   40    7:    9    7:    8
          69       1:   40    7:    9    9:   10
          70       1:   40    7:    9   11:   12
          71       1:   40    7:    9   13:   14
          72       1:   40    7:    9   15:   16
          73       1:   40    7:    9   17:   17
          74       1:   40    7:    9   18:   18
          75       1:   40    7:    9   19:   19
          76       1:   40    7:    9   20:   20
          77       1:   40    7:    9   21:   21
          78       1:   40    7:    9   22:   22
          79       1:   40    7:    9   23:   23
          80       1:   40    7:    9   24:   24
          81       1:   40    7:    9   25:   25
          82       1:   40    7:    9   26:   26
          83       1:   40    7:    9   27:   27
          84       1:   40    7:    9   28:   28
          85       1:   40    7:    9   29:   29
          86       1:   40    7:    9   30:   30
          87       1:   40    7:    9   31:   31
          88       1:   40    7:    9   32:   32
          89       1:   40    7:    9   33:   33
          90       1:   40    7:    9   34:   34
          91       1:   40    7:    9   35:   35
          92       1:   40    7:    9   36:   36
          93       1:   40    7:    9   37:   37
          94       1:   40    7:    9   38:   38
          95       1:   40    7:    9   39:   39
          96       1:   40    7:    9   40:   40
          97       1:   40   10:   12    1:    2
          98       1:   40   10:   12    3:    4
          99       1:   40   10:   12    5:    6
         100       1:   40   10:   12    7:    8
         101       1:   40   10:   12    9:   10
         102       1:   40   10:   12   11:   12
         103       1:   40   10:   12   13:   14
         104       1:   40   10:   12   15:   16
         105       1:   40   10:   12   17:   17
         106       1:   40   10:   12   18:   18
         107       1:   40   10:   12   19:   19
         108       1:   40   10:   12   20:   20
         109       1:   40   10:   12   21:   21
         110       1:   40   10:   12   22:   22
         111       1:   40   10:   12   23:   23
         112       1:   40   10:   12   24:   24
         113       1:   40   10:   12   25:   25
         114       1:   40   10:   12   26:   26
         115       1:   40   10:   12   27:   27
         116       1:   40   10:   12   28:   28
         117       1:   40   10:   12   29:   29
         118       1:   40   10:   12   30:   30
         119       1:   40   10:   12   31:   31
         120       1:   40   10:   12   32:   32
         121       1:   40   10:   12   33:   33
         122       1:   40   10:   12   34:   34
         123       1:   40   10:   12   35:   35
         124       1:   40   10:   12   36:   36
         125       1:   40   10:   12   37:   37
         126       1:   40   10:   12   38:   38
         127       1:   40   10:   12   39:   39
         128       1:   40   10:   12   40:   40
         129       1:   40   13:   15    1:    2
         130       1:   40   13:   15    3:    4
         131       1:   40   13:   15    5:    6
         132       1:   40   13:   15    7:    8
         133       1:   40   13:   15    9:   10
         134       1:   40   13:   15   11:   12
         135       1:   40   13:   15   13:   14
         136       1:   40   13:   15   15:   16
         137       1:   40   13:   15   17:   17
         138       1:   40   13:   15   18:   18
         139       1:   40   13:   15   19:   19
         140       1:   40   13:   15   20:   20
         141       1:   40   13:   15   21:   21
         142       1:   40   13:   15   22:   22
         143       1:   40   13:   15   23:   23
         144       1:   40   13:   15   24:   24
         145       1:   40   13:   15   25:   25
         146       1:   40   13:   15   26:   26
         147       1:   40   13:   15   27:   27
         148       1:   40   13:   15   28:   28
         149       1:   40   13:   15   29:   29
         150       1:   40   13:   15   30:   30
         151       1:   40   13:   15   31:   31
         152       1:   40   13:   15   32:   32
         153       1:   40   13:   15   33:   33
         154       1:   40   13:   15   34:   34
         155       1:   40   13:   15   35:   35
         156       1:   40   13:   15   36:   36
         157       1:   40   13:   15   37:   37
         158       1:   40   13:   15   38:   38
         159       1:   40   13:   15   39:   39
         160       1:   40   13:   15   40:   40
         161       1:   40   16:   18    1:    2
         162       1:   40   16:   18    3:    4
         163       1:   40   16:   18    5:    6
         164       1:   40   16:   18    7:    8
         165       1:   40   16:   18    9:   10
         166       1:   40   16:   18   11:   12
         167       1:   40   16:   18   13:   14
         168       1:   40   16:   18   15:   16
         169       1:   40   16:   18   17:   17
         170       1:   40   16:   18   18:   18
         171       1:   40   16:   18   19:   19
         172       1:   40   16:   18   20:   20
         173       1:   40   16:   18   21:   21
         174       1:   40   16:   18   22:   22
         175       1:   40   16:   18   23:   23
         176       1:   40   16:   18   24:   24
         177       1:   40   16:   18   25:   25
         178       1:   40   16:   18   26:   26
         179       1:   40   16:   18   27:   27
         180       1:   40   16:   18   28:   28
         181       1:   40   16:   18   29:   29
         182       1:   40   16:   18   30:   30
         183       1:   40   16:   18   31:   31
         184       1:   40   16:   18   32:   32
         185       1:   40   16:   18   33:   33
         186       1:   40   16:   18   34:   34
         187       1:   40   16:   18   35:   35
         188       1:   40   16:   18   36:   36
         189       1:   40   16:   18   37:   37
         190       1:   40   16:   18   38:   38
         191       1:   40   16:   18   39:   39
         192       1:   40   16:   18   40:   40
         193       1:   40   19:   21    1:    2
         194       1:   40   19:   21    3:    4
         195       1:   40   19:   21    5:    6
         196       1:   40   19:   21    7:    8
         197       1:   40   19:   21    9:   10
         198       1:   40   19:   21   11:   12
         199       1:   40   19:   21   13:   14
         200       1:   40   19:   21   15:   16
         201       1:   40   19:   21   17:   17
         202       1:   40   19:   21   18:   18
         203       1:   40   19:   21   19:   19
         204       1:   40   19:   21   20:   20
         205       1:   40   19:   21   21:   21
         206       1:   40   19:   21   22:   22
         207       1:   40   19:   21   23:   23
         208       1:   40   19:   21   24:   24
         209       1:   40   19:   21   25:   25
         210       1:   40   19:   21   26:   26
         211       1:   40   19:   21   27:   27
         212       1:   40   19:   21   28:   28
         213       1:   40   19:   21   29:   29
         214       1:   40   19:   21   30:   30
         215       1:   40   19:   21   31:   31
         216       1:   40   19:   21   32:   32
         217       1:   40   19:   21   33:   33
         218       1:   40   19:   21   34:   34
         219       1:   40   19:   21   35:   35
         220       1:   40   19:   21   36:   36
         221       1:   40   19:   21   37:   37
         222       1:   40   19:   21   38:   38
         223       1:   40   19:   21   39:   39
         224       1:   40   19:   21   40:   40
         225       1:   40   22:   24    1:    2
         226       1:   40   22:   24    3:    4
         227       1:   40   22:   24    5:    6
         228       1:   40   22:   24    7:    8
         229       1:   40   22:   24    9:   10
         230       1:   40   22:   24   11:   12
         231       1:   40   22:   24   13:   14
         232       1:   40   22:   24   15:   16
         233       1:   40   22:   24   17:   17
         234       1:   40   22:   24   18:   18
         235       1:   40   22:   24   19:   19
         236       1:   40   22:   24   20:   20
         237       1:   40   22:   24   21:   21
         238       1:   40   22:   24   22:   22
         239       1:   40   22:   24   23:   23
         240       1:   40   22:   24   24:   24
         241       1:   40   22:   24   25:   25
         242       1:   40   22:   24   26:   26
         243       1:   40   22:   24   27:   27
         244       1:   40   22:   24   28:   28
         245       1:   40   22:   24   29:   29
         246       1:   40   22:   24   30:   30
         247       1:   40   22:   24   31:   31
         248       1:   40   22:   24   32:   32
         249       1:   40   22:   24   33:   33
         250       1:   40   22:   24   34:   34
         251       1:   40   22:   24   35:   35
         252       1:   40   22:   24   36:   36
         253       1:   40   22:   24   37:   37
         254       1:   40   22:   24   38:   38
         255       1:   40   22:   24   39:   39
         256       1:   40   22:   24   40:   40
         257       1:   40   25:   26    1:    2
         258       1:   40   25:   26    3:    4
         259       1:   40   25:   26    5:    6
         260       1:   40   25:   26    7:    8
         261       1:   40   25:   26    9:   10
         262       1:   40   25:   26   11:   12
         263       1:   40   25:   26   13:   14
         264       1:   40   25:   26   15:   16
         265       1:   40   25:   26   17:   17
         266       1:   40   25:   26   18:   18
         267       1:   40   25:   26   19:   19
         268       1:   40   25:   26   20:   20
         269       1:   40   25:   26   21:   21
         270       1:   40   25:   26   22:   22
         271       1:   40   25:   26   23:   23
         272       1:   40   25:   26   24:   24
         273       1:   40   25:   26   25:   25
         274       1:   40   25:   26   26:   26
         275       1:   40   25:   26   27:   27
         276       1:   40   25:   26   28:   28
         277       1:   40   25:   26   29:   29
         278       1:   40   25:   26   30:   30
         279       1:   40   25:   26   31:   31
         280       1:   40   25:   26   32:   32
         281       1:   40   25:   26   33:   33
         282       1:   40   25:   26   34:   34
         283       1:   40   25:   26   35:   35
         284       1:   40   25:   26   36:   36
         285       1:   40   25:   26   37:   37
         286       1:   40   25:   26   38:   38
         287       1:   40   25:   26   39:   39
         288       1:   40   25:   26   40:   40
         289       1:   40   27:   28    1:    2
         290       1:   40   27:   28    3:    4
         291       1:   40   27:   28    5:    6
         292       1:   40   27:   28    7:    8
         293       1:   40   27:   28    9:   10
         294       1:   40   27:   28   11:   12
         295       1:   40   27:   28   13:   14
         296       1:   40   27:   28   15:   16
         297       1:   40   27:   28   17:   17
         298       1:   40   27:   28   18:   18
         299       1:   40   27:   28   19:   19
         300       1:   40   27:   28   20:   20
         301       1:   40   27:   28   21:   21
         302       1:   40   27:   28   22:   22
         303       1:   40   27:   28   23:   23
         304       1:   40   27:   28   24:   24
         305       1:   40   27:   28   25:   25
         306       1:   40   27:   28   26:   26
         307       1:   40   27:   28   27:   27
         308       1:   40   27:   28   28:   28
         309       1:   40   27:   28   29:   29
         310       1:   40   27:   28   30:   30
         311       1:   40   27:   28   31:   31
         312       1:   40   27:   28   32:   32
         313       1:   40   27:   28   33:   33
         314       1:   40   27:   28   34:   34
         315       1:   40   27:   28   35:   35
         316       1:   40   27:   28   36:   36
         317       1:   40   27:   28   37:   37
         318       1:   40   27:   28   38:   38
         319       1:   40   27:   28   39:   39
         320       1:   40   27:   28   40:   40
         321       1:   40   29:   30    1:    2
         322       1:   40   29:   30    3:    4
         323       1:   40   29:   30    5:    6
         324       1:   40   29:   30    7:    8
         325       1:   40   29:   30    9:   10
         326       1:   40   29:   30   11:   12
         327       1:   40   29:   30   13:   14
         328       1:   40   29:   30   15:   16
         329       1:   40   29:   30   17:   17
         330       1:   40   29:   30   18:   18
         331       1:   40   29:   30   19:   19
         332       1:   40   29:   30   20:   20
         333       1:   40   29:   30   21:   21
         334       1:   40   29:   30   22:   22
         335       1:   40   29:   30   23:   23
         336       1:   40   29:   30   24:   24
         337       1:   40   29:   30   25:   25
         338       1:   40   29:   30   26:   26
         339       1:   40   29:   30   27:   27
         340       1:   40   29:   30   28:   28
         341       1:   40   29:   30   29:   29
         342       1:   40   29:   30   30:   30
         343       1:   40   29:   30   31:   31
         344       1:   40   29:   30   32:   32
         345       1:   40   29:   30   33:   33
         346       1:   40   29:   30   34:   34
         347       1:   40   29:   30   35:   35
         348       1:   40   29:   30   36:   36
         349       1:   40   29:   30   37:   37
         350       1:   40   29:   30   38:   38
         351       1:   40   29:   30   39:   39
         352       1:   40   29:   30   40:   40
         353       1:   40   31:   32    1:    2
         354       1:   40   31:   32    3:    4
         355       1:   40   31:   32    5:    6
         356       1:   40   31:   32    7:    8
         357       1:   40   31:   32    9:   10
         358       1:   40   31:   32   11:   12
         359       1:   40   31:   32   13:   14
         360       1:   40   31:   32   15:   16
         361       1:   40   31:   32   17:   17
         362       1:   40   31:   32   18:   18
         363       1:   40   31:   32   19:   19
         364       1:   40   31:   32   20:   20
         365       1:   40   31:   32   21:   21
         366       1:   40   31:   32   22:   22
         367       1:   40   31:   32   23:   23
         368       1:   40   31:   32   24:   24
         369       1:   40   31:   32   25:   25
         370       1:   40   31:   32   26:   26
         371       1:   40   31:   32   27:   27
         372       1:   40   31:   32   28:   28
         373       1:   40   31:   32   29:   29
         374       1:   40   31:   32   30:   30
         375       1:   40   31:   32   31:   31
         376       1:   40   31:   32   32:   32
         377       1:   40   31:   32   33:   33
         378       1:   40   31:   32   34:   34
         379       1:   40   31:   32   35:   35
         380       1:   40   31:   32   36:   36
         381       1:   40   31:   32   37:   37
         382       1:   40   31:   32   38:   38
         383       1:   40   31:   32   39:   39
         384       1:   40   31:   32   40:   40
         385       1:   40   33:   34    1:    2
         386       1:   40   33:   34    3:    4
         387       1:   40   33:   34    5:    6
         388       1:   40   33:   34    7:    8
         389       1:   40   33:   34    9:   10
         390       1:   40   33:   34   11:   12
         391       1:   40   33:   34   13:   14
         392       1:   40   33:   34   15:   16
         393       1:   40   33:   34   17:   17
         394       1:   40   33:   34   18:   18
         395       1:   40   33:   34   19:   19
         396       1:   40   33:   34   20:   20
         397       1:   40   33:   34   21:   21
         398       1:   40   33:   34   22:   22
         399       1:   40   33:   34   23:   23
         400       1:   40   33:   34   24:   24
         401       1:   40   33:   34   25:   25
         402       1:   40   33:   34   26:   26
         403       1:   40   33:   34   27:   27
         404       1:   40   33:   34   28:   28
         405       1:   40   33:   34   29:   29
         406       1:   40   33:   34   30:   30
         407       1:   40   33:   34   31:   31
         408       1:   40   33:   34   32:   32
         409       1:   40   33:   34   33:   33
         410       1:   40   33:   34   34:   34
         411       1:   40   33:   34   35:   35
         412       1:   40   33:   34   36:   36
         413       1:   40   33:   34   37:   37
         414       1:   40   33:   34   38:   38
         415       1:   40   33:   34   39:   39
         416       1:   40   33:   34   40:   40
         417       1:   40   35:   36    1:    2
         418       1:   40   35:   36    3:    4
         419       1:   40   35:   36    5:    6
         420       1:   40   35:   36    7:    8
         421       1:   40   35:   36    9:   10
         422       1:   40   35:   36   11:   12
         423       1:   40   35:   36   13:   14
         424       1:   40   35:   36   15:   16
         425       1:   40   35:   36   17:   17
         426       1:   40   35:   36   18:   18
         427       1:   40   35:   36   19:   19
         428       1:   40   35:   36   20:   20
         429       1:   40   35:   36   21:   21
         430       1:   40   35:   36   22:   22
         431       1:   40   35:   36   23:   23
         432       1:   40   35:   36   24:   24
         433       1:   40   35:   36   25:   25
         434       1:   40   35:   36   26:   26
         435       1:   40   35:   36   27:   27
         436       1:   40   35:   36   28:   28
         437       1:   40   35:   36   29:   29
         438       1:   40   35:   36   30:   30
         439       1:   40   35:   36   31:   31
         440       1:   40   35:   36   32:   32
         441       1:   40   35:   36   33:   33
         442       1:   40   35:   36   34:   34
         443       1:   40   35:   36   35:   35
         444       1:   40   35:   36   36:   36
         445       1:   40   35:   36   37:   37
         446       1:   40   35:   36   38:   38
         447       1:   40   35:   36   39:   39
         448       1:   40   35:   36   40:   40
         449       1:   40   37:   38    1:    2
         450       1:   40   37:   38    3:    4
         451       1:   40   37:   38    5:    6
         452       1:   40   37:   38    7:    8
         453       1:   40   37:   38    9:   10
         454       1:   40   37:   38   11:   12
         455       1:   40   37:   38   13:   14
         456       1:   40   37:   38   15:   16
         457       1:   40   37:   38   17:   17
         458       1:   40   37:   38   18:   18
         459       1:   40   37:   38   19:   19
         460       1:   40   37:   38   20:   20
         461       1:   40   37:   38   21:   21
         462       1:   40   37:   38   22:   22
         463       1:   40   37:   38   23:   23
         464       1:   40   37:   38   24:   24
         465       1:   40   37:   38   25:   25
         466       1:   40   37:   38   26:   26
         467       1:   40   37:   38   27:   27
         468       1:   40   37:   38   28:   28
         469       1:   40   37:   38   29:   29
         470       1:   40   37:   38   30:   30
         471       1:   40   37:   38   31:   31
         472       1:   40   37:   38   32:   32
         473       1:   40   37:   38   33:   33
         474       1:   40   37:   38   34:   34
         475       1:   40   37:   38   35:   35
         476       1:   40   37:   38   36:   36
         477       1:   40   37:   38   37:   37
         478       1:   40   37:   38   38:   38
         479       1:   40   37:   38   39:   39
         480       1:   40   37:   38   40:   40
         481       1:   40   39:   40    1:    2
         482       1:   40   39:   40    3:    4
         483       1:   40   39:   40    5:    6
         484       1:   40   39:   40    7:    8
         485       1:   40   39:   40    9:   10
         486       1:   40   39:   40   11:   12
         487       1:   40   39:   40   13:   14
         488       1:   40   39:   40   15:   16
         489       1:   40   39:   40   17:   17
         490       1:   40   39:   40   18:   18
         491       1:   40   39:   40   19:   19
         492       1:   40   39:   40   20:   20
         493       1:   40   39:   40   21:   21
         494       1:   40   39:   40   22:   22
         495       1:   40   39:   40   23:   23
         496       1:   40   39:   40   24:   24
         497       1:   40   39:   40   25:   25
         498       1:   40   39:   40   26:   26
         499       1:   40   39:   40   27:   27
         500       1:   40   39:   40   28:   28
         501       1:   40   39:   40   29:   29
         502       1:   40   39:   40   30:   30
         503       1:   40   39:   40   31:   31
         504       1:   40   39:   40   32:   32
         505       1:   40   39:   40   33:   33
         506       1:   40   39:   40   34:   34
         507       1:   40   39:   40   35:   35
         508       1:   40   39:   40   36:   36
         509       1:   40   39:   40   37:   37
         510       1:   40   39:   40   38:   38
         511       1:   40   39:   40   39:   39
         512       1:   40   39:   40   40:   40

InitMesh: MESH =    80 x    80 x    80 =      512000
InitMesh: (bp) =    40 x    40 x    40 =       64000
InitMesh: Mesh cutoff (required, used) =   150.000   182.073 Ry
ExtMesh (bp) on 0 =   128 x    91 x    90 =     1048320
New grid distribution:   2
           1       6:   10    6:   11   11:   15
           2      16:   20    1:    5   36:   40
           3      31:   35    1:    5   11:   15
           4      21:   25   22:   26    1:    5
           5      16:   20    1:    5   31:   35
           6      21:   25    1:    5   11:   15
           7      31:   35   31:   35    1:    5
           8      16:   20    1:    6   16:   20
           9      11:   15    1:    6   16:   20
          10      11:   15    1:    5   31:   35
          11      31:   35    6:   10   11:   15
          12      31:   35   36:   40    1:    5
          13      21:   25   11:   16   11:   15
          14      26:   30    1:    5   21:   25
          15      36:   40    1:    5    6:   10
          16      36:   40   36:   40    1:    5
          17      36:   40   11:   16   11:   15
          18      26:   30   22:   26   21:   25
          19      36:   40    1:    5    1:    5
          20      36:   40   31:   35    6:   10
          21      31:   35   11:   16   11:   15
          22      31:   35    1:    5    1:    5
          23       6:   10    1:    5   31:   35
          24      31:   35   36:   40    6:   10
          25      31:   35   16:   21    1:    5
          26      31:   35    6:   10    1:    5
          27      36:   40   31:   35    1:    5
          28       6:   10    1:    5   36:   40
          29      16:   20   11:   16   31:   35
          30       1:    5    1:    5   36:   40
          31      26:   30   17:   21    6:   10
          32      21:   25   36:   40    1:    5
          33      31:   35   11:   16    6:   10
          34      21:   25   22:   26   21:   25
          35      26:   30   31:   35    1:    5
          36      31:   35    1:    5    6:   10
          37      21:   25   31:   35   31:   35
          38       1:    5    6:   11   11:   15
          39      36:   40    1:    5   11:   15
          40      21:   25   31:   35    1:    5
          41      36:   40   16:   21    1:    5
          42      26:   30   22:   26   36:   40
          43      26:   30    1:    5   16:   20
          44      21:   25   31:   35    6:   10
          45       6:   10   11:   16   31:   35
          46      21:   25    1:    5   21:   25
          47      21:   25   17:   21    6:   10
          48      26:   30   22:   26   11:   15
          49      36:   40   11:   16   26:   30
          50      21:   25   31:   35   36:   40
          51      31:   35   11:   15    1:    5
          52      26:   30   36:   40    1:    5
          53      21:   25   11:   16   31:   35
          54      21:   25   11:   15    1:    5
          55       6:   10    6:   10   31:   35
          56      11:   15   22:   26   16:   20
          57      26:   30   11:   16   31:   35
          58      36:   40    6:   10    6:   10
          59      16:   20   27:   31   11:   15
          60       1:    5    6:   10   36:   40
          61      11:   15   11:   16   31:   35
          62      11:   15    1:    5   36:   40
          63      26:   30   11:   15    1:    5
          64      16:   20   22:   26   16:   20
          65       1:    5   11:   16   31:   35
          66      36:   40   31:   35   31:   35
          67      36:   40    6:   10    1:    5
          68      16:   20   22:   26   11:   15
          69      36:   40   31:   35   21:   25
          70      11:   15    6:   11   11:   15
          71      26:   30    6:   10   11:   15
          72      11:   15   27:   31   11:   15
          73       1:    5    6:   11   16:   20
          74      36:   40   36:   40   21:   25
          75      21:   25    6:   10   16:   20
          76       6:   10   27:   31   11:   15
          77      36:   40   11:   16    6:   10
          78      21:   25    6:   10   21:   25
          79       1:    5   27:   31    1:    5
          80       1:    5   27:   31   11:   15
          81       6:   10   11:   16   21:   25
          82      31:   35   31:   35   21:   25
          83       1:    5   22:   26    6:   10
          84       1:    5   22:   26   16:   20
          85       1:    5   11:   16   21:   25
          86      16:   20   22:   26    6:   10
          87       1:    5    6:   10   31:   35
          88       1:    5   22:   26   11:   15
          89      31:   35   11:   16   31:   35
          90      11:   15   22:   26    6:   10
          91       6:   10   22:   26   11:   15
          92      11:   15    6:   10   36:   40
          93      16:   20   11:   16    1:    5
          94       6:   10    6:   10   36:   40
          95      16:   20   27:   31    6:   10
          96      11:   15   22:   26   11:   15
          97      21:   25   22:   26   31:   35
          98       6:   10   22:   26   16:   20
          99      31:   35    6:   10    6:   10
         100      21:   25   11:   16    6:   10
         101      21:   25   22:   26   36:   40
         102      16:   20    6:   11   11:   15
         103      36:   40    6:   10   11:   15
         104       1:    5   27:   31   16:   20
         105       6:   10    6:   11   16:   20
         106      36:   40   36:   40   26:   30
         107      26:   30    6:   10   16:   20
         108       1:    5   32:   36    6:   10
         109      11:   15   11:   16   21:   25
         110       6:   10   22:   26   21:   25
         111      11:   15   27:   31    6:   10
         112       6:   10   36:   40    1:    5
         113       1:    5   22:   26   21:   25
         114      21:   25   11:   16   26:   30
         115      11:   15   27:   31    1:    5
         116       6:   10   32:   36    6:   10
         117      26:   30   11:   16   26:   30
         118      16:   20   22:   26    1:    5
         119      16:   20    6:   10   31:   35
         120       1:    5   36:   40    1:    5
         121      11:   15    6:   10   31:   35
         122      16:   20   27:   31    1:    5
         123      16:   20   36:   40    1:    5
         124       1:    5   11:   16   36:   40
         125       6:   10   11:   16   36:   40
         126      36:   40   11:   15   36:   40
         127      36:   40    6:   10   16:   20
         128      11:   15   36:   40    1:    5
         129      11:   15   22:   26   21:   25
         130      36:   40   11:   15    1:    5
         131      16:   20   32:   36    6:   10
         132      26:   30   11:   16    6:   10
         133      16:   20   22:   26   21:   25
         134      26:   30   11:   16   11:   15
         135      11:   15   32:   36    6:   10
         136      21:   25   11:   15   16:   20
         137      36:   40   11:   16   31:   35
         138       1:    5   22:   26   26:   30
         139      36:   40    1:    5   16:   20
         140      36:   40   32:   36   11:   15
         141      16:   20   11:   16   21:   25
         142       1:    5   27:   31   26:   30
         143      31:   35    1:    5   16:   20
         144       6:   10   32:   36   11:   15
         145      31:   35    1:    5   36:   40
         146      11:   15   11:   16   26:   30
         147      31:   35    6:   10   16:   20
         148      31:   35   37:   40   16:   20
         149      16:   20   11:   16   26:   30
         150      36:   40    6:   10   31:   35
         151      36:   40   11:   15   16:   20
         152      36:   40   37:   40   11:   15
         153      31:   35    6:   10   36:   40
         154      31:   35   11:   15   16:   20
         155      31:   35   37:   40   11:   15
         156      16:   20   11:   16   36:   40
         157      11:   15   11:   16   36:   40
         158      31:   35   11:   15   36:   40
         159       6:   10   22:   26    1:    5
         160      36:   40   37:   40   16:   20
         161      26:   30   16:   21    1:    5
         162      36:   40    1:    5   36:   40
         163      21:   25   37:   40   11:   15
         164      31:   35   17:   21    6:   10
         165      36:   40    1:    5   31:   35
         166      26:   30   17:   21   11:   15
         167      26:   30   37:   40   11:   15
         168      36:   40   16:   21   16:   20
         169      31:   35   16:   21   16:   20
         170      31:   35    1:    5   31:   35
         171       1:    5   22:   26    1:    5
         172      26:   30   32:   35   16:   20
         173      26:   30   16:   21   21:   25
         174      31:   35    6:   10   31:   35
         175      31:   35   17:   21   11:   15
         176      21:   25   32:   35   16:   20
         177      26:   30   11:   15   36:   40
         178       1:    5   16:   21   26:   30
         179      26:   30   11:   15   16:   20
         180      26:   30   27:   30   36:   40
         181       6:   10   16:   21   26:   30
         182      36:   40   17:   21   11:   15
         183      36:   40   17:   21   31:   35
         184       6:   10   32:   35   16:   20
         185      21:   25   11:   15   36:   40
         186       1:    5   17:   21    6:   10
         187       1:    5   32:   35   16:   20
         188      31:   35   16:   21   36:   40
         189      36:   40   16:   21   36:   40
         190      16:   20   17:   21   36:   40
         191       6:   10   11:   15    1:    5
         192      11:   15   32:   35   16:   20
         193      21:   25   16:   21    1:    5
         194      31:   35   17:   21   31:   35
         195      16:   20   32:   35   16:   20
         196      36:   40   17:   21    6:   10
         197      21:   25   17:   21   31:   35
         198      21:   25   17:   21   11:   15
         199      16:   20   32:   35   11:   15
         200      26:   30   16:   21   16:   20
         201      21:   25   16:   21   16:   20
         202      36:   40    6:   10   36:   40
         203      11:   15   17:   21    1:    5
         204      11:   15   32:   35   11:   15
         205      21:   25   16:   21   21:   25
         206      26:   30   17:   21   31:   35
         207       6:   10   17:   21    6:   10
         208      11:   15   37:   40   26:   30
         209      31:   35   16:   21   21:   25
         210       6:   10   27:   31   31:   35
         211      16:   20    6:   10    6:   10
         212      11:   15   32:   35    1:    5
         213      11:   15   16:   21    6:   10
         214      11:   15    6:   10    6:   10
         215       1:    5   17:   21   31:   35
         216       6:   10   37:   40    6:   10
         217      16:   20   17:   21   31:   35
         218       1:    5   11:   15    1:    5
         219      16:   20   32:   35    1:    5
         220      26:   30   16:   21   36:   40
         221      16:   20   16:   21    6:   10
         222      11:   15   17:   21   36:   40
         223       6:   10    1:    5   11:   15
         224       6:   10   32:   35    1:    5
         225       6:   10   16:   21    1:    5
         226       1:    5   27:   31   31:   35
         227      26:   30   22:   26    1:    5
         228       6:   10   22:   26    6:   10
         229       1:    5   11:   16    6:   10
         230       6:   10   22:   26   36:   40
         231       1:    5    1:    5   11:   15
         232      36:   40   22:   26   16:   20
         233      31:   35   11:   16   26:   30
         234       1:    5   22:   26   36:   40
         235       6:   10    1:    5   16:   20
         236      21:   25   22:   26   16:   20
         237       1:    5   16:   21    1:    5
         238      36:   40   22:   26   21:   25
         239       1:    5    1:    5   16:   20
         240       1:    5   32:   35    1:    5
         241      21:   25   16:   21   36:   40
         242      36:   40   22:   26   26:   30
         243      11:   15   11:   15    6:   10
         244       1:    5   37:   40    6:   10
         245      11:   15   11:   16    1:    5
         246      31:   35   22:   26   26:   30
         247      16:   20   17:   21    1:    5
         248      36:   40   22:   25   31:   35
         249       6:   10   11:   16    6:   10
         250      16:   20   11:   15    6:   10
         251      31:   35   22:   25   31:   35
         252      16:   20   22:   26   36:   40
         253      36:   40   16:   21   21:   25
         254      11:   15   22:   26   36:   40
         255       1:    5    1:    5    6:   10
         256       1:    5   32:   35   21:   25
         257      36:   40    6:   10   21:   25
         258       1:    5   22:   26   31:   35
         259      11:   15   22:   26    1:    5
         260       6:   10   37:   40   11:   15
         261      31:   35    6:   10   21:   25
         262      16:   20   32:   36   26:   30
         263       6:   10    6:   10    1:    5
         264      21:   25   22:   26   11:   15
         265      26:   30    1:    5   26:   30
         266       6:   10   22:   26   31:   35
         267       1:    5    6:   10    6:   10
         268      26:   30   22:   26   16:   20
         269      21:   25    6:   10   26:   30
         270      31:   35   22:   26   21:   25
         271       6:   10    1:    5    6:   10
         272      16:   20   37:   40    6:   10
         273      26:   30    6:   10   21:   25
         274       6:   10   22:   26   26:   30
         275       6:   10    1:    5    1:    5
         276      11:   15   37:   40    6:   10
         277      21:   25    1:    5   26:   30
         278       1:    5    1:    5    1:    5
         279      26:   30   22:   26   31:   35
         280       1:    5   37:   40   11:   15
         281      31:   35    1:    5   21:   25
         282       1:    5    6:   10    1:    5
         283      11:   15   37:   40   36:   40
         284      36:   40   22:   26   36:   40
         285      36:   40    1:    5   21:   25
         286      31:   35   22:   26   36:   40
         287      16:   20    6:   10    1:    5
         288      36:   40   27:   30   21:   25
         289      26:   30    6:   10   26:   30
         290      11:   15   27:   31   31:   35
         291      26:   30   22:   25   26:   30
         292       1:    5   27:   31    6:   10
         293      26:   30    1:    5   31:   35
         294      16:   20   22:   26   31:   35
         295      11:   15    6:   10    1:    5
         296      21:   25   27:   31   16:   20
         297      21:   25    1:    5   31:   35
         298      16:   20   27:   31   31:   35
         299      16:   20    1:    5    6:   10
         300      16:   20   27:   31   16:   20
         301      21:   25    6:   10   31:   35
         302       6:   10   27:   31   21:   25
         303      11:   15    1:    5    6:   10
         304      21:   25   27:   30   21:   25
         305      31:   35   17:   21   26:   30
         306      21:   25   26:   30   26:   30
         307      11:   15    1:    5    1:    5
         308      31:   35   27:   30   26:   30
         309      36:   40   17:   21   26:   30
         310      26:   30   26:   30   26:   30
         311       6:   10    6:   10    6:   10
         312      21:   25   27:   30   31:   35
         313      21:   25    6:   10   36:   40
         314      16:   20    1:    5    1:    5
         315      26:   30   27:   30   31:   35
         316      16:   20   27:   31   36:   40
         317      26:   30    1:    5   36:   40
         318      11:   15   27:   31   36:   40
         319      11:   15   17:   21   16:   20
         320      31:   35   27:   30   36:   40
         321      26:   30    6:   10   36:   40
         322       1:    5   27:   31   36:   40
         323      21:   25   22:   25   26:   30
         324       6:   10   27:   31    6:   10
         325      26:   30    6:   10   31:   35
         326      11:   15   22:   26   31:   35
         327      16:   20   12:   16   16:   20
         328      21:   25   27:   31   11:   15
         329      21:   25    1:    5   36:   40
         330      11:   15   27:   31   26:   30
         331      21:   25    1:    5    1:    5
         332      11:   15   27:   31   16:   20
         333      36:   40    6:   10   26:   30
         334       1:    5   27:   31   21:   25
         335      16:   20   17:   21   16:   20
         336      26:   30   27:   30   21:   25
         337      31:   35    6:   10   26:   30
         338       6:   10   27:   31   26:   30
         339      16:   20   17:   21   11:   15
         340      36:   40   27:   30   26:   30
         341      21:   25   11:   15   21:   25
         342      11:   15   17:   21   11:   15
         343      31:   35   26:   30   31:   35
         344      31:   35   27:   30   21:   25
         345      31:   35    1:    5   26:   30
         346      36:   40   26:   30   31:   35
         347      11:   15   12:   16   16:   20
         348      36:   40   27:   30   36:   40
         349      36:   40    1:    5   26:   30
         350       6:   10   27:   31   36:   40
         351      26:   30    1:    5    6:   10
         352      21:   25   27:   30   36:   40
         353      31:   35   11:   15   21:   25
         354      16:   20   22:   26   26:   30
         355       6:   10   27:   31    1:    5
         356      26:   30   31:   35    6:   10
         357      26:   30   17:   21   26:   30
         358       1:    5   36:   40   21:   25
         359      21:   25    1:    5    6:   10
         360      26:   30   27:   31   11:   15
         361      36:   40   11:   15   21:   25
         362      16:   20   27:   31   26:   30
         363      26:   30    6:   10    6:   10
         364       6:   10   27:   31   16:   20
         365      26:   30   11:   15   21:   25
         366      26:   30   31:   35   21:   25
         367      21:   25    6:   10    6:   10
         368      16:   20   32:   35   21:   25
         369      21:   25   17:   21   26:   30
         370      21:   25   31:   35   26:   30
         371      21:   25    6:   10    1:    5
         372      31:   35   27:   30    1:    5
         373      26:   30   31:   35   26:   30
         374      26:   30    1:    5    1:    5
         375      30:   35   31:   35   31:   35
         376      26:   29   31:   35   31:   35
         377      16:   20   32:   36   31:   35
         378      26:   30    6:   10    1:    5
         379      26:   30   22:   25    6:   10
         380      30:   35   31:   35   36:   40
         381       1:    5   17:   21   21:   25
         382      36:   40   31:   35   36:   40
         383       1:    5   12:   16   11:   15
         384      26:   29   31:   35   36:   40
         385      16:   20    6:   10   26:   30
         386      16:   20   27:   31   21:   25
         387      16:   20    7:   11   16:   20
         388      31:   35   31:   35    6:   10
         389       1:    5   11:   15   26:   30
         390      11:   15   27:   31   21:   25
         391       1:    5   17:   21   11:   15
         392      31:   35   32:   36   11:   15
         393       6:   10   17:   21   21:   25
         394      11:   15   22:   26   26:   30
         395       6:   10   12:   16   11:   15
         396      31:   35   32:   36   16:   20
         397      16:   20    1:    5   26:   30
         398      21:   25   31:   35   21:   25
         399      16:   20    1:    5   11:   15
         400      11:   15   32:   35   21:   25
         401      11:   15    1:    5   26:   30
         402      31:   35   31:   35   26:   30
         403      11:   15    1:    5   11:   15
         404      36:   40   27:   30    1:    5
         405      11:   15    6:   10   26:   30
         406      11:   15    7:   11   16:   20
         407       1:    5   32:   36   31:   35
         408      26:   30   27:   30    1:    5
         409      16:   20   17:   21   26:   30
         410       6:   10   32:   36   31:   35
         411       6:   10   17:   21   16:   20
         412      21:   25   27:   30    1:    5
         413      11:   15   17:   21   26:   30
         414      16:   20   32:   36   36:   40
         415       1:    5   17:   21   16:   20
         416      21:   25   22:   25    6:   10
         417       1:    5    1:    5   31:   35
         418      16:   20   36:   40   21:   25
         419      16:   20   12:   16   11:   15
         420      36:   40   36:   40    6:   10
         421      11:   15   17:   21   21:   25
         422      11:   15   36:   40   21:   25
         423      11:   15   12:   16   11:   15
         424       1:    5   32:   36   11:   15
         425       6:   10   11:   15   26:   30
         426      11:   15   32:   36   26:   30
         427       1:    5   12:   16   16:   20
         428      21:   25   36:   40   16:   20
         429      16:   20   17:   21   21:   25
         430      31:   35   36:   40   21:   25
         431       6:   10   17:   21   11:   15
         432       6:   10   32:   35   21:   25
         433       6:   10    6:   10   21:   25
         434      36:   40   31:   35   26:   30
         435       6:   10   12:   16   16:   20
         436      31:   35   27:   30    6:   10
         437       1:    5    6:   10   21:   25
         438      31:   35   22:   26    6:   10
         439      11:   15   32:   36   31:   35
         440      36:   40   27:   30    6:   10
         441       6:   10    1:    5   26:   30
         442      36:   40   22:   26    1:    5
         443       6:   10   37:   40   31:   35
         444      11:   15   32:   36   36:   40
         445       1:    5    1:    5   26:   30
         446      25:   29   36:   40   36:   40
         447      31:   35   22:   26   16:   20
         448       6:   10   32:   35   36:   40
         449       1:    5    1:    5   21:   25
         450       1:    5   32:   36   26:   30
         451      26:   30   26:   30    6:   10
         452      26:   30   36:   40    6:   10
         453      36:   40   32:   36   16:   20
         454       6:   10   36:   40   21:   25
         455      21:   25   26:   30    6:   10
         456      16:   20   36:   40   16:   20
         457       6:   10    1:    5   21:   25
         458       6:   10   32:   36   26:   30
         459      31:   35   22:   26    1:    5
         460      26:   30   36:   40   16:   20
         461      11:   15    6:   10   21:   25
         462      26:   30   36:   40   21:   25
         463      31:   35   22:   26   11:   15
         464       1:    5   37:   40   31:   35
         465      16:   20    1:    5   21:   25
         466      26:   30   36:   40   26:   30
         467      36:   40   22:   26    6:   10
         468       6:   10   37:   40   26:   30
         469      26:   30   27:   31   16:   20
         470       1:    5   37:   40   26:   30
         471      30:   35   36:   40   31:   35
         472      25:   29   36:   40   31:   35
         473      36:   40   36:   40   31:   35
         474      31:   35   27:   31   11:   15
         475      21:   24   36:   40   31:   35
         476      30:   35   36:   40   36:   40
         477      16:   20    6:   10   21:   25
         478       1:    5   36:   40   36:   40
         479      36:   40   27:   31   11:   15
         480      21:   24   36:   40   36:   40
         481       6:   10    6:   10   26:   30
         482      21:   25    6:   10   11:   15
         483      36:   40   22:   26   11:   15
         484      21:   25   36:   40    6:   10
         485       1:    5    6:   10   26:   30
         486      26:   30    1:    5   11:   15
         487      16:   20   36:   40   11:   15
         488       1:    5   36:   40   16:   20
         489      11:   15    1:    5   21:   25
         490      21:   25    1:    5   16:   20
         491      36:   40   27:   31   16:   20
         492       6:   10   36:   40   16:   20
         493       1:    5   17:   21   36:   40
         494      21:   25   36:   40   21:   25
         495      11:   15   36:   40   16:   20
         496       1:    5   32:   35   36:   40
         497       6:   10   17:   21   31:   35
         498      21:   25   36:   40   26:   30
         499      11:   15   36:   40   11:   15
         500      16:   20   37:   40   26:   30
         501      11:   15   17:   21   31:   35
         502      31:   35   36:   40   26:   30
         503      26:   30   32:   36   11:   15
         504      16:   20   37:   40   31:   35
         505       6:   10   17:   21   36:   40
[...]
(Free)Eharris+ p_basis*V_orbitals  =      -14783.442724
>> End of run:  25-SEP-2016   8:32:11
************************************************************************************************************************
***             WIDEN YOUR WINDOW TO 120 CHARACTERS.  Use 'enscript -r -fCourier9' to print this document            ***
************************************************************************************************************************

---------------------------------------------- PETSc Performance Summary: ----------------------------------------------

/home/keceli/scratch2/siesta-qetsc/Obj/siesta on a arch-xl named Q02-I1-J03.vesta.itd with 512 processors, by Unknown Sun Sep 25 08:32:11 2016
Using Petsc Development GIT revision: v3.7.3-1204-g68f0caa  GIT Date: 2016-08-19 16:41:02 -0500

                         Max       Max/Min        Avg      Total 
Time (sec):           1.594e+03      1.00001   1.594e+03
Objects:              3.104e+03      1.10227   3.045e+03
Flops:                5.019e+09      0.00000   2.535e+09  1.298e+12
Flops/sec:            3.149e+06      0.00000   1.590e+06  8.142e+08
MPI Messages:         9.973e+04     17.69719   5.449e+04  2.790e+07
MPI Message Lengths:  7.838e+08   1790.68680   2.738e+03  7.639e+10
MPI Reductions:       1.338e+04      1.85192

Flop counting convention: 1 flop = 1 real number operation of type (multiply/divide/add/subtract)
                            e.g., VecAXPY() for real vectors of length N --> 2N flops
                            and VecAXPY() for complex vectors of length N --> 8N flops

Summary of Stages:   ----- Time ------  ----- Flops -----  --- Messages ---  -- Message Lengths --  -- Reductions --
                        Avg     %Total     Avg     %Total   counts   %Total     Avg         %Total   counts   %Total 
 0:      Main Stage: 1.9347e-04   0.0%  0.0000e+00   0.0%  0.000e+00   0.0%  0.000e+00        0.0%  0.000e+00   0.0% 
 1:     siesta_init: 2.5295e+00   0.2%  0.0000e+00   0.0%  0.000e+00   0.0%  0.000e+00        0.0%  0.000e+00   0.0% 
 2:   siesta_forces: 5.5501e+02  34.8%  0.0000e+00   0.0%  0.000e+00   0.0%  0.000e+00        0.0%  0.000e+00   0.0% 
 3:    siesta_solve: 2.6928e-03   0.0%  0.0000e+00   0.0%  0.000e+00   0.0%  0.000e+00        0.0%  0.000e+00   0.0% 
 4:    siesta2qetsc: 1.1039e+01   0.7%  0.0000e+00   0.0%  1.984e+03   0.0%  1.294e-02        0.0%  8.500e+01   1.2% 
 5: qetsc_setup_eps: 1.2517e+01   0.8%  3.0293e+09   0.2%  1.623e+06   5.8%  1.303e+03       47.6%  3.080e+02   4.3% 
 6: qetsc_solve_eps: 2.8054e+02  17.6%  1.2947e+12  99.8%  2.385e+07  85.5%  1.432e+03       52.3%  4.557e+03  62.9% 
 7:   qetsc_eigvals: 3.4043e-04   0.0%  0.0000e+00   0.0%  0.000e+00   0.0%  0.000e+00        0.0%  0.000e+00   0.0% 
 8:   qetsc_density: 1.5111e+01   0.9%  0.0000e+00   0.0%  2.422e+06   8.7%  3.202e+00        0.1%  6.052e+03  83.5% 
10:     siesta_misc: 7.1164e+02  44.7%  0.0000e+00   0.0%  0.000e+00   0.0%  0.000e+00        0.0%  0.000e+00   0.0% 
11:     siesta_move: 4.2747e-05   0.0%  0.0000e+00   0.0%  0.000e+00   0.0%  0.000e+00        0.0%  0.000e+00   0.0% 
12: siesta_analysis: 9.4497e-04   0.0%  0.0000e+00   0.0%  0.000e+00   0.0%  0.000e+00        0.0%  0.000e+00   0.0% 
13:      siesta_end: 5.3968e+00   0.3%  0.0000e+00   0.0%  0.000e+00   0.0%  0.000e+00        0.0%  0.000e+00   0.0% 

------------------------------------------------------------------------------------------------------------------------
See the 'Profiling' chapter of the users' manual for details on interpreting output.
Phase summary info:
   Count: number of times phase was executed
   Time and Flops: Max - maximum over all processors
                   Ratio - ratio of maximum to minimum over all processors
   Mess: number of messages sent
   Avg. len: average message length (bytes)
   Reduct: number of global reductions
   Global: entire computation
   Stage: stages of a computation. Set stages with PetscLogStagePush() and PetscLogStagePop().
      %T - percent time in this phase         %F - percent flops in this phase
      %M - percent messages in this phase     %L - percent message lengths in this phase
      %R - percent reductions in this phase
   Total Mflop/s: 10e-6 * (sum of flops over all processors)/(max time over all processors)
------------------------------------------------------------------------------------------------------------------------
Event                Count      Time (sec)     Flops                             --- Global ---  --- Stage ---   Total
                   Max Ratio  Max     Ratio   Max  Ratio  Mess   Avg len Reduct  %T %F %M %L %R  %T %F %M %L %R Mflop/s
------------------------------------------------------------------------------------------------------------------------

--- Event Stage 0: Main Stage


--- Event Stage 1: siesta_init


--- Event Stage 2: siesta_forces


--- Event Stage 3: siesta_solve


--- Event Stage 4: siesta2qetsc

MatConvert            18 1.0 7.3877e-02 6.5 0.00e+00 0.0 0.0e+00 0.0e+00 0.0e+00  0  0  0  0  0   0  0  0  0  0     0
MatAssemblyBegin      19 1.0 1.0925e+01355.0 0.00e+00 0.0 0.0e+00 0.0e+00 3.8e+01  1  0  0  0  1  93  0  0  0 45     0
MatAssemblyEnd        19 1.0 8.8219e-02 1.0 0.00e+00 0.0 2.0e+03 1.8e+02 4.5e+01  0  0  0  0  1   1  0100100 53     0
VecSet                19 1.0 4.5431e-04 6.6 0.00e+00 0.0 0.0e+00 0.0e+00 0.0e+00  0  0  0  0  0   0  0  0  0  0     0

--- Event Stage 5: qetsc_setup_eps

MatScale              34 1.0 4.1356e-02292.4 7.01e+06 0.0 0.0e+00 0.0e+00 0.0e+00  0  0  0  0  0   0100  0  0  0 73249
MatAssemblyBegin      34 1.0 1.1832e+00611.8 0.00e+00 0.0 0.0e+00 0.0e+00 3.4e+01  0  0  0  0  0   1  0  0  0 11     0
MatAssemblyEnd        34 1.0 2.7413e+00 1.0 0.00e+00 0.0 2.0e+05 4.2e+02 1.4e+02  0  0  1  0  2  22  0 12  0 44     0
MatGetSubMatrice      17 1.0 8.6975e+0015.4 0.00e+00 0.0 1.4e+06 2.5e+04 5.1e+01  0  0  5 47  1  53  0 88100 17     0
MatAXPY               17 1.0 8.5342e-02626.9 0.00e+00 0.0 0.0e+00 0.0e+00 0.0e+00  0  0  0  0  0   1  0  0  0  0     0
MatRedundantMat       17 1.0 1.2757e+01 1.1 0.00e+00 0.0 1.6e+06 2.2e+04 3.1e+02  1  0  6 48  4  99  0100100 99     0
MatMPIConcateSeq      17 1.0 1.2189e+01 3.0 0.00e+00 0.0 2.0e+05 4.2e+02 2.6e+02  0  0  1  0  4  46  0 12  0 83     0
VecSet                17 1.0 9.6521e-05 1.5 0.00e+00 0.0 0.0e+00 0.0e+00 0.0e+00  0  0  0  0  0   0  0  0  0  0     0

--- Event Stage 6: qetsc_solve_eps

MatMult             5878 0.0 3.1642e+01 0.0 4.84e+09 0.0 2.0e+07 1.7e+03 0.0e+00  1 97 73 45  0   6 97 86 85  0 39622
MatSolve            2040 0.0 1.1113e+02 0.0 0.00e+00 0.0 2.9e+06 5.0e+02 1.3e+03  4  0 10  2 18  22  0 12  4 28     0
MatCholFctrSym         1 1.0 3.4665e+00 1.0 0.00e+00 0.0 0.0e+00 0.0e+00 5.0e+00  0  0  0  0  0   1  0  0  0  0     0
MatCholFctrNum        22 1.2 1.0112e+02 1.2 0.00e+00 0.0 0.0e+00 0.0e+00 0.0e+00  6  0  0  0  0  35  0  0  0  0     0
MatCopy               21 1.2 4.1523e+00 1.2 0.00e+00 0.0 0.0e+00 0.0e+00 8.4e+01  0  0  0  0  1   1  0  0  0  2     0
MatConvert             1 1.0 9.1828e-0313.0 0.00e+00 0.0 0.0e+00 0.0e+00 0.0e+00  0  0  0  0  0   0  0  0  0  0     0
MatAssemblyBegin      47 1.2 8.5673e+00745.5 0.00e+00 0.0 0.0e+00 0.0e+00 9.0e+01  0  0  0  0  1   0  0  0  0  2     0
MatAssemblyEnd        47 1.2 3.8557e+00 1.2 0.00e+00 0.0 2.8e+05 4.2e+02 2.3e+02  0  0  1  0  3   1  0  1  0  5     0
MatGetRow          13780 1.2 8.1634e-0157.9 0.00e+00 0.0 0.0e+00 0.0e+00 0.0e+00  0  0  0  0  0   0  0  0  0  0     0
MatGetRowIJ            1 1.0 2.2287e-06 2.0 0.00e+00 0.0 0.0e+00 0.0e+00 0.0e+00  0  0  0  0  0   0  0  0  0  0     0
MatGetSubMatrice       2 1.0 1.0414e+0016.0 0.00e+00 0.0 1.7e+05 2.5e+04 6.0e+00  0  0  1  6  0   0  0  1 11  0     0
MatGetOrdering         1 1.0 2.5343e-04 1.0 0.00e+00 0.0 0.0e+00 0.0e+00 0.0e+00  0  0  0  0  0   0  0  0  0  0     0
MatZeroEntries        21 1.2 3.7249e-02196.4 0.00e+00 0.0 0.0e+00 0.0e+00 0.0e+00  0  0  0  0  0   0  0  0  0  0     0
MatAXPY               22 1.2 8.1070e+00 1.2 0.00e+00 0.0 2.5e+05 4.2e+02 2.6e+02  1  0  1  0  4   3  0  1  0  6     0
MatRedundantMat        2 1.0 1.5166e+00 1.0 0.00e+00 0.0 1.9e+05 2.2e+04 3.6e+01  0  0  1  6  0   1  0  1 11  1     0
MatMPIConcateSeq       2 1.0 1.4397e+00 3.0 0.00e+00 0.0 2.3e+04 4.2e+02 3.0e+01  0  0  0  0  0   0  0  0  0  1     0
VecDot               144 0.0 7.8472e-01 0.0 6.09e+04 0.0 0.0e+00 0.0e+00 7.3e+01  0  0  0  0  1   0  0  0  0  2    20
VecCopy               35 0.0 1.3845e-04 0.0 0.00e+00 0.0 0.0e+00 0.0e+00 0.0e+00  0  0  0  0  0   0  0  0  0  0     0
VecSet              206279.3 1.2944e-02135.7 0.00e+00 0.0 0.0e+00 0.0e+00 0.0e+00  0  0  0  0  0   0  0  0  0  0     0
VecScatterBegin     9958 0.0 1.1782e+01 0.0 0.00e+00 0.0 2.3e+07 1.5e+03 1.3e+03  0  0 84 47 17   1  0 98 89 28     0
VecScatterEnd       7918 0.0 1.4907e+00 0.0 0.00e+00 0.0 0.0e+00 0.0e+00 0.0e+00  0  0  0  0  0   0  0  0  0  0     0
VecSetRandom          18 0.0 2.4033e-03 0.0 0.00e+00 0.0 0.0e+00 0.0e+00 0.0e+00  0  0  0  0  0   0  0  0  0  0     0
EPSSetUp              22 1.0 1.2412e+02 1.0 0.00e+00 0.0 4.5e+05 9.8e+03 6.9e+02  8  0  2  6  9  44  0  2 11 15     0
EPSSolve              18 1.0 2.5456e+02 1.0 5.01e+09 0.0 2.4e+07 1.5e+03 4.4e+03 16100 85 47 60  91100 99 89 96  5086
STSetUp               40 1.0 9.5743e+01 1.0 0.00e+00 0.0 2.1e+05 4.2e+02 3.0e+02  6  0  1  0  4  33  0  1  0  7     0
STApply             2040 0.0 1.1173e+02 0.0 1.68e+09 0.0 1.0e+07 1.3e+03 1.3e+03  4 35 37 18 18  25 35 43 34 28  4032
STMatSolve          2040 0.0 1.1152e+02 0.0 0.00e+00 0.0 2.9e+06 5.0e+02 1.3e+03  4  0 10  2 18  22  0 12  4 28     0
KSPSetUp              22 1.2 5.7265e-05 2.6 0.00e+00 0.0 0.0e+00 0.0e+00 0.0e+00  0  0  0  0  0   0  0  0  0  0     0
KSPSolve            2040 0.0 1.1125e+02 0.0 0.00e+00 0.0 2.9e+06 5.0e+02 1.3e+03  4  0 10  2 18  22  0 12  4 28     0
PCSetUp               22 1.2 1.0458e+02 1.2 0.00e+00 0.0 0.0e+00 0.0e+00 1.0e+01  6  0  0  0  0  36  0  0  0  0     0
PCApply             2040 0.0 1.1114e+02 0.0 0.00e+00 0.0 2.9e+06 5.0e+02 1.3e+03  4  0 10  2 18  22  0 12  4 28     0
BVCreate              4010.0 1.1471e-0219.4 0.00e+00 0.0 0.0e+00 0.0e+00 1.8e+02  0  0  0  0  2   0  0  0  0  4     0
BVCopy                35 0.0 3.9482e-04 0.0 0.00e+00 0.0 0.0e+00 0.0e+00 0.0e+00  0  0  0  0  0   0  0  0  0  0     0
BVMultVec           3790 0.0 1.9623e-01 0.0 7.53e+07 0.0 0.0e+00 0.0e+00 0.0e+00  0  1  0  0  0   0  1  0  0  0 98485
BVMultInPlace         35 0.0 2.0970e-02 0.0 1.61e+07 0.0 0.0e+00 0.0e+00 0.0e+00  0  0  0  0  0   0  0  0  0  0 79968
BVDotVec            3790 0.0 2.0806e+01 0.0 3.20e+09 0.0 1.3e+07 1.7e+03 2.2e+03  1 61 46 28 30   4 62 53 53 48 38303
BVOrthogonalizeV    1992 0.0 2.1064e+01 0.0 3.28e+09 0.0 1.3e+07 1.7e+03 2.2e+03  1 63 46 28 30   4 63 53 53 48 38752
BVScale             2040 0.0 1.6388e-02 0.0 4.32e+05 0.0 0.0e+00 0.0e+00 0.0e+00  0  0  0  0  0   0  0  0  0  0  8374
BVNormVec            144 0.0 7.8989e-01 0.0 1.19e+08 0.0 4.3e+05 1.7e+03 7.3e+01  0  2  2  1  1   0  2  2  2  2 33061
BVSetRandom           18 0.0 2.6096e-03 0.0 0.00e+00 0.0 0.0e+00 0.0e+00 0.0e+00  0  0  0  0  0   0  0  0  0  0     0
DSSolve               35 0.0 4.0368e-01 0.0 0.00e+00 0.0 0.0e+00 0.0e+00 0.0e+00  0  0  0  0  0   0  0  0  0  0     0
DSVectors           2506 0.0 7.0583e-03 0.0 0.00e+00 0.0 0.0e+00 0.0e+00 0.0e+00  0  0  0  0  0   0  0  0  0  0     0
DSOther               35 0.0 3.1624e-02 0.0 0.00e+00 0.0 0.0e+00 0.0e+00 0.0e+00  0  0  0  0  0   0  0  0  0  0     0

--- Event Stage 7: qetsc_eigvals


--- Event Stage 8: qetsc_density

VecCopy             2304 1.0 2.2963e-02 5.5 0.00e+00 0.0 0.0e+00 0.0e+00 0.0e+00  0  0  0  0  0   0  0  0  0  0     0
VecSet               128 1.0 1.3305e-03 1.9 0.00e+00 0.0 0.0e+00 0.0e+00 0.0e+00  0  0  0  0  0   0  0  0  0  0     0
VecScatterBegin     4648 1.0 9.4915e+0014.5 0.00e+00 0.0 1.2e+06 5.2e+01 2.3e+03  1  0  4  0 32  59  0 51 71 38     0
VecScatterEnd       2344 1.0 3.6382e+00 1.4 0.00e+00 0.0 0.0e+00 0.0e+00 0.0e+00  0  0  0  0  0  22  0  0  0  0     0
BVCopy              2304 1.0 6.1353e-02 4.5 0.00e+00 0.0 0.0e+00 0.0e+00 0.0e+00  0  0  0  0  0   0  0  0  0  0     0

--- Event Stage 9: Unknown


--- Event Stage 10: siesta_misc


--- Event Stage 11: siesta_move


--- Event Stage 12: siesta_analysis


--- Event Stage 13: siesta_end

------------------------------------------------------------------------------------------------------------------------

Memory usage is given in bytes:

Object Type          Creations   Destructions     Memory  Descendants' Mem.
Reports information only for process 0.

--- Event Stage 0: Main Stage


--- Event Stage 1: siesta_init


--- Event Stage 2: siesta_forces


--- Event Stage 3: siesta_solve


--- Event Stage 4: siesta2qetsc

              Matrix    57              0            0     0.
              Vector    20              1         1648     0.
      Vector Scatter    19              0            0     0.
           Index Set     2              2        12644     0.

--- Event Stage 5: qetsc_setup_eps

              Matrix    68             51     35837972     0.
              Vector    35             34       430576     0.
      Vector Scatter    17             17        18224     0.
           Index Set    68             34       210256     0.
          EPS Solver     1              0            0     0.
  Spectral Transform     1              0            0     0.
       Krylov Solver     1              0            0     0.
      Preconditioner     1              0            0     0.
       Basis Vectors     1              0            0     0.
         PetscRandom     1              0            0     0.
              Region     1              0            0     0.
       Direct Solver     1              0            0     0.

--- Event Stage 6: qetsc_solve_eps

              Matrix    78             66    106688652     0.
              Vector   199            177      1275048     0.
      Vector Scatter    26             22        23584     0.
           Index Set    59             54       303528     0.
          EPS Solver     1              0            0     0.
  Spectral Transform     1              0            0     0.
       Krylov Solver     1              0            0     0.
      Preconditioner     1              0            0     0.
       Basis Vectors    23             21        22176     0.
              Region     1              0            0     0.
       Direct Solver     1              0            0     0.

--- Event Stage 7: qetsc_eigvals


--- Event Stage 8: qetsc_density

              Vector   146             18        60192     0.
      Vector Scatter   704            576       630576     0.
           Index Set  1280           1280      1422848     0.

--- Event Stage 9: Unknown


--- Event Stage 10: siesta_misc


--- Event Stage 11: siesta_move


--- Event Stage 12: siesta_analysis


--- Event Stage 13: siesta_end

              Viewer     1              0            0     0.
========================================================================================================================
Average time to get PetscTime(): 1.28687e-07
Average time for MPI_Barrier(): 3.452e-06
Average time for zero size MPI_Send(): 1.37762e-05
#PETSc Option Table entries:
-eps_interval -2.3,0.
-eps_krylovschur_detect_zeros 0
-eps_krylovschur_partitions 32
-ioptbin 3
-ioptinertia 1
-ioptleft 2
-isglobal 1
-log_view
-mat_mumps_cntl_3 1e-12
-mat_mumps_icntl_13 1
-mat_mumps_icntl_24 1
-mat_mumps_icntl_28 2
-mat_mumps_icntl_29 1
-roptbuffer 0.1
-roptdiff 0.1
-roptleft -2.3
-roptright 0.
-st_pc_factor_mat_solver_package mumps
#End of PETSc Option Table entries
Compiled with FORTRAN kernels
Compiled with full precision matrices (default)
sizeof(short) 2 sizeof(int) 4 sizeof(long) 8 sizeof(void*) 8 sizeof(PetscScalar) 8 sizeof(PetscInt) 4
Configure options: --known-has-attribute-aligned=1 --download-chaco=0 --download-cmake=0 --download-hypre=0 --download-metis=1 --download-mumps=1 --download-parmetis=1 --download-plapack=0 --download-prometheus=0 --download-ptscotch=1 --download-spai=0 --download-spooles=0 --download-superlu=0 --download-superlu_dist=0 --download-triangle=0 --known-bits-per-byte=8 --known-level1-dcache-assoc=0 --known-level1-dcache-linesize=32 --known-level1-dcache-size=32768 --known-memcmp-ok=1 --known-mpi-c-double-complex=1 --known-mpi-int64_t=1 --known-mpi-long-double=1 --known-mpi-shared-libraries=0 --known-sdot-returns-double=0 --known-sizeof-MPI_Comm=4 --known-sizeof-MPI_Fint=4 --known-sizeof-char=1 --known-sizeof-double=8 --known-sizeof-float=4 --known-sizeof-int=4 --known-sizeof-long-long=8 --known-sizeof-long=8 --known-sizeof-short=2 --known-sizeof-size_t=8 --known-sizeof-void-p=8 --known-snrm2-returns-double=0 --with-batch=1 --with-blacs-include=/soft/libraries/alcf/current/xl/SCALAPACK/ --with-blacs-lib=/soft/libraries/alcf/current/xl/SCALAPACK/lib/libscalapack.a --with-blas-lapack-lib="-L/soft/libraries/alcf/current/xl/LAPACK/lib -llapack -L/soft/libraries/alcf/current/xl/BLAS/lib -lblas" --with-cc=mpixlc_r --with-clib-autodetect=0 --with-cxx=mpixlcxx_r --with-cxxlib-autodetect=0 --with-debugging=0 --with-fc="mpixlf77_r -qnosave" --with-fortran-kernels=1 --with-fortranlib-autodetect=0 --with-is-color-value-type=short --with-scalapack-include=/soft/libraries/alcf/current/xl/SCALAPACK/ --with-scalapack-lib=/soft/libraries/alcf/current/xl/SCALAPACK/lib/libscalapack.a --with-shared-libraries=0 --with-x=0 -COPTFLAGS=" -g -O3 -qhot=level=0 -qsimd=auto -qmaxmem=-1 -qstrict -qstrict_induction" -CXXOPTFLAGS="  -g -O3 -qhot=level=0 -qsimd=auto -qmaxmem=-1 -qstrict -qstrict_induction" -FOPTFLAGS=" -g -O3 -qhot=level=0 -qsimd=auto -qmaxmem=-1 -qstrict -qstrict_induction" LIBS="-lmpichcxx-gcc -lmpichf77-gcc -L/soft/compilers/ibmcmp-feb2015/vacpp/bg/12.1/bglib64 -libmc++ -L/soft/compilers/ibmcmp-feb2015/xlf/bg/14.1/bglib64 -lxlf90_r -lxlomp_ser -lxlfmath" PETSC_ARCH=arch-xl
-----------------------------------------
Libraries compiled on Sat Aug 20 04:19:47 2016 on vestalac2 
Machine characteristics: Linux-2.6.32-573.18.1.el6.ppc64-ppc64-with-redhat-6.7-Santiago
Using PETSc directory: /home/keceli/scratch2/petsc
Using PETSc arch: arch-xl
-----------------------------------------

Using C compiler: mpixlc_r   -g -O3 -qhot=level=0 -qsimd=auto -qmaxmem=-1 -qstrict -qstrict_induction  ${COPTFLAGS} ${CFLAGS}
Using Fortran compiler: mpixlf77_r -qnosave  -g -O3 -qhot=level=0 -qsimd=auto -qmaxmem=-1 -qstrict -qstrict_induction   ${FOPTFLAGS} ${FFLAGS} 
-----------------------------------------

Using include paths: -I/home/keceli/scratch2/petsc/arch-xl/include -I/home/keceli/scratch2/petsc/include -I/home/keceli/scratch2/petsc/include -I/home/keceli/scratch2/petsc/arch-xl/include -I/bgsys/drivers/V1R2M4/ppc64/comm/include -I/bgsys/drivers/V1R2M4/ppc64/comm/lib/xl -I/bgsys/drivers/V1R2M4/ppc64 -I/bgsys/drivers/V1R2M4/ppc64/comm/sys/include -I/bgsys/drivers/V1R2M4/ppc64/spi/include -I/bgsys/drivers/V1R2M4/ppc64/spi/include/kernel/cnk
-----------------------------------------

Using C linker: mpixlc_r
Using Fortran linker: mpixlf77_r -qnosave
Using libraries: -Wl,-rpath,/home/keceli/scratch2/petsc/arch-xl/lib -L/home/keceli/scratch2/petsc/arch-xl/lib -lpetsc -Wl,-rpath,/home/keceli/scratch2/petsc/arch-xl/lib -L/home/keceli/scratch2/petsc/arch-xl/lib -lcmumps -ldmumps -lsmumps -lzmumps -lmumps_common -lpord -Wl,-rpath,/soft/libraries/alcf/current/xl/SCALAPACK/lib -L/soft/libraries/alcf/current/xl/SCALAPACK/lib -lscalapack -L/soft/libraries/alcf/current/xl/LAPACK/lib -llapack -L/soft/libraries/alcf/current/xl/BLAS/lib -lblas -lparmetis -lmetis -lptesmumps -lptscotch -lptscotcherr -lscotch -lscotcherr -lrt -lm -lpthread -ldl -lmpichcxx-gcc -lmpichf77-gcc -L/soft/compilers/ibmcmp-feb2015/vacpp/bg/12.1/bglib64 -libmc++ -L/soft/compilers/ibmcmp-feb2015/xlf/bg/14.1/bglib64 -lxlf90_r -lxlomp_ser -lxlfmath
-----------------------------------------

