s.subSiesta: Submission time = 10s04m08h
s.subSiesta: Job name = q32_b312_g1_b91_s64_n64_c16
s.subSiesta: Number of nodes = 64
s.subSiesta: Number of cores = 1024
s.subSiesta: Number of cores/node = 16
s.subSiesta: Number of slices = 64
s.subSiesta: Mapping = ABCDET
10s04m08h
-ioptbin 3
-ioptinertia 1
-ioptleft 2
-roptleft -2.3
-roptright 0.
-roptdiff 0.1
#-writeeigs 1
-roptbuffer 0.1
-isglobal 1
# A chain of identical atoms (instead of an xyz file) can be specified with the following options
#-N 10 # Number of atoms
#-Z 8 # Atomic number
#-c 32 # Maximum number of interactions of an atom

# A petsc matrix (binary) can be given
#-method file
#-fA '/Volumes/s/matrices/petscbinary/graphene_xxs_A'
#-fB '/Volumes/s/matrices/petscbinary/graphene_xxs_B'
#-scfthresh 1.e-3

#PETSc options

-log_view
#-mat_mumps_icntl_13 1 #turn off scaLAPACK for matrix inertia
#-mat_mumps_icntl_14 40 # for MUMPS error -9, which means that MUMPS didn't allocate a big enough workspace
#-mat_mumps_icntl_24 1 #null pivot row detection for matrix inertia
#-mat_mumps_icntl_23 0
#-mat_mumps_icntl_28 1
-mat_mumps_icntl_28 2
-mat_mumps_icntl_29 1 # ptscotch
#-mat_mumps_icntl_29 2 # parmetis
#-malloc_info
#-mat_view ::ascii_info
#-mat_getrow_uppertriangular 1
#-st_type sinvert
#-st_ksp_type preonly
#-st_pc_type cholesky
-st_pc_factor_mat_solver_package mumps
#-st_pc_factor_mat_solver_package mkl_pardiso
#-mat_mkl_pardiso_65 2
#SLEPc options

#-eps_krylovschur_partitions 1
#-eps_krylovschur_nev 120
-eps_interval -2.3,0.
#-eps_tol  1.e-8
-eps_krylovschur_detect_zeros 0
#-eps_purify 1
SystemName liquid_D2O_32
SystemLabel D2O_32

#UseTreeTimer .true.
DM.MixingWeight 0.3
DM.NumberPulay 3

SolutionMethod  slepc1 #slepc0 for the older method
#SolutionMethod diagon
BlockSize 91

##################################################
# Do not change below this line                  #
##################################################

%block SuperCell
1 0 0
0 1 0
0 0 1
%endblock SuperCell

NumberOfAtoms 96
NumberOfSpecies 2

xc.functional GGA
xc.authors PBE 
MeshCutoff 150.0 Ry

%block ChemicalSpeciesLabel
  1   8  O
  2   1  H  
%endblock ChemicalSpeciesLabel

#%block AtomicMass
#  2   2.0
#%endblock AtomicMass

%block PAO.Basis # qz+tp+dp'
O 4
n=2 0 4 E 50.0 8.0
 10.0 5.0 3.5 2.0
n=2 1 4 E 10.0 8.0
 10.0 5.0 3.5 2.0
n=3 2 3 E 40.0 9.0 Q 6.0 0.00
 10.0 2.0 3.0
n=4 3 2 E 50.0 9.0 Q 17.0 0.40
 10.0 1.7
H 3
n=1 0 4 E 50.0 9.0
 10.0 5.0 3.5 2.0
n=2 1 3 E 50.0 9.0 Q 3.5 0.00
 10.0 2.0 4.0
n=3 2 2 E 50.0 9.0 Q 16.0 0.80
 10.0 2.0
%endblock PAO.Basis


LatticeConstant 9.856391407574419 Ang
%block LatticeVectors   
  1.0  0.0  0.0
  0.0  1.0  0.0
  0.0  0.0  1.0
%endblock LatticeVectors   

AtomicCoordinatesFormat NotScaledCartesianAng
%block AtomicCoordinatesAndAtomicSpecies < coord32.data
Siesta Version: siesta-trunk-492
Architecture  : powerpc64-unknown-linux-gnu--unknown
Compiler flags: mpixlf90_r -g -O3 -qhot=level=0 -qsimd=auto -qmaxmem=-1 -qstrict -qstrict_indduction -I/home/keceli/scratch2/petsc/include -I/home/keceli/scratch2/petsc/arch-xl/include -I/bgsys/drivers/V1R2M4/ppc64/comm/include -I/bgsys/drivers/V1R2M4/ppc64/comm/lib/xl -I/bgsys/drivers/V1R2M4/ppc64 -I/bgsys/drivers/V1R2M4/ppc64/comm/sys/include -I/bgsys/drivers/V1R2M4/ppc64/spi/include -I/bgsys/drivers/V1R2M4/ppc64/spi/include/kernel/cnk -I/home/keceli/scratch2/keceli-slice/include -I/home/keceli/scratch2/keceli-slice/arch-xl/include -g -qhot=level=0 -qsimd=auto -qmaxmem=-1 -qstrict -qstrict_induction
PP flags      : -WF,-DBSC_CELLXC -WF,-DMPI -WF,-DFC_HAVE_ABORT 
PARALLEL version

* Running on 1024 nodes in parallel
>> Start of run:  25-SEP-2016   8:05:16

                           ***********************       
                           *  WELCOME TO SIESTA  *       
                           ***********************       
WARNING: Siesta is reading its input from file INPUT_DEBUG

reinit: -----------------------------------------------------------------------
reinit: System Name: liquid_D2O_32
reinit: -----------------------------------------------------------------------
reinit: System Label: D2O_32                                                      
reinit: -----------------------------------------------------------------------

initatom: Reading input for the pseudopotentials and atomic orbitals ----------
Species number:   1 Atomic number:    8 Label: O
Species number:   2 Atomic number:    1 Label: H
 
Ground state valence configuration:   2s02  2p04
Reading pseudopotential information in formatted form from O.psf

Valence configuration for pseudopotential generation:
2s( 2.00) rc: 1.14
2p( 4.00) rc: 1.14
3d( 0.00) rc: 1.14
4f( 0.00) rc: 1.14
Ground state valence configuration:   1s01
Reading pseudopotential information in formatted form from H.psf

Valence configuration for pseudopotential generation:
1s( 0.60) rc: 1.25
2p( 0.00) rc: 1.25
3d( 0.00) rc: 1.25
4f( 0.00) rc: 1.25
For O, standard SIESTA heuristics set lmxkb to 4
 (one more than the basis l, including polarization orbitals).
Use PS.lmax or PS.KBprojectors blocks to override.
Warning: For O lmxkb would have been set to 4
Setting it to maximum value of 3 (f projector)
For H, standard SIESTA heuristics set lmxkb to 3
 (one more than the basis l, including polarization orbitals).
Use PS.lmax or PS.KBprojectors blocks to override.

<basis_specs>
===============================================================================
O                    Z=   8    Mass=  16.000        Charge= 0.17977+309
Lmxo=3 Lmxkb= 3    BasisType=split      Semic=F
L=0  Nsemic=0  Cnfigmx=2
          n=1  nzeta=4  polorb=0
            splnorm:   0.15000    
               vcte:    50.000    
               rinn:    8.0000    
               qcoe:    0.0000    
               qyuk:    0.0000    
               qwid:   0.10000E-01
                rcs:    10.000      5.0000      3.5000      2.0000    
            lambdas:    1.0000      1.0000      1.0000      1.0000    
L=1  Nsemic=0  Cnfigmx=2
          n=1  nzeta=4  polorb=0
            splnorm:   0.15000    
               vcte:    10.000    
               rinn:    8.0000    
               qcoe:    0.0000    
               qyuk:    0.0000    
               qwid:   0.10000E-01
                rcs:    10.000      5.0000      3.5000      2.0000    
            lambdas:    1.0000      1.0000      1.0000      1.0000    
L=2  Nsemic=0  Cnfigmx=3
          n=1  nzeta=3  polorb=0
            splnorm:   0.15000    
               vcte:    40.000    
               rinn:    9.0000    
               qcoe:    6.0000    
               qyuk:    0.0000    
               qwid:   0.10000E-01
                rcs:    10.000      2.0000      3.0000    
            lambdas:    1.0000      1.0000      1.0000    
L=3  Nsemic=0  Cnfigmx=4
          n=1  nzeta=2  polorb=0
            splnorm:   0.15000    
               vcte:    50.000    
               rinn:    9.0000    
               qcoe:    17.000    
               qyuk:   0.40000    
               qwid:   0.10000E-01
                rcs:    10.000      1.7000    
            lambdas:    1.0000      1.0000    
-------------------------------------------------------------------------------
L=0  Nkbl=1  erefs: 0.17977+309
L=1  Nkbl=1  erefs: 0.17977+309
L=2  Nkbl=1  erefs: 0.17977+309
L=3  Nkbl=1  erefs: 0.17977+309
===============================================================================
</basis_specs>

atom: Called for O                     (Z =   8)

read_vps: Pseudopotential generation method:
read_vps: ATM3      Troullier-Martins                       
Total valence charge:    6.00000

read_vps: Pseudopotential includes a core correction:
read_vps: Pseudo-core for xc-correction

xc_check: Exchange-correlation functional:
xc_check: GGA Perdew, Burke & Ernzerhof 1996
V l=0 = -2*Zval/r beyond r=  1.1278
V l=1 = -2*Zval/r beyond r=  1.1278
V l=2 = -2*Zval/r beyond r=  1.1278
V l=3 = -2*Zval/r beyond r=  1.1278
All V_l potentials equal beyond r=  1.1278
This should be close to max(r_c) in ps generation
All pots = -2*Zval/r beyond r=  1.1278

VLOCAL1: 99.0% of the norm of Vloc inside     34.126 Ry
VLOCAL1: 99.9% of the norm of Vloc inside     77.774 Ry
atom: Maximum radius for 4*pi*r*r*local-pseudopot. charge    1.37759
atom: Maximum radius for r*vlocal+2*Zval:    1.18566
GHOST: No ghost state for L =  0
GHOST: No ghost state for L =  1
GHOST: No ghost state for L =  2
GHOST: No ghost state for L =  3

KBgen: Kleinman-Bylander projectors: 
   l= 0   rc=  1.262145   el= -1.757696   Ekb=  9.253654   kbcos=  0.328369
   l= 1   rc=  1.262145   el= -0.664256   Ekb= -7.897175   kbcos= -0.393093
   l= 2   rc=  1.343567   el=  0.002031   Ekb= -1.922379   kbcos= -0.003517
   l= 3   rc=  1.394919   el=  0.003153   Ekb= -0.738278   kbcos= -0.000358

KBgen: Total number of  Kleinman-Bylander projectors:   16
atom: -------------------------------------------------------------------------

atom: SANKEY-TYPE ORBITALS:
atom: Selected multiple-zeta basis: split     

SPLIT: Orbitals with angular momentum L= 0

SPLIT: Basis orbitals for state 2s

   izeta = 1
                 lambda =    1.000000
                     rc =   10.181049
                 energy =   -1.757767
                kinetic =    1.546187
    potential(screened) =   -3.303954
       potential(ionic) =  -11.175858

   izeta = 2
                 rmatch =    5.055603
              splitnorm =    0.001043
                 energy =   -1.756217
* WARNING: effective split_norm is quite small. Orbitals will be very similar.
                kinetic =    1.590301
    potential(screened) =   -3.346518
       potential(ionic) =  -11.267994

   izeta = 3
                 rmatch =    3.562532
              splitnorm =    0.023118
                 energy =   -1.724097
* WARNING: effective split_norm is quite small. Orbitals will be very similar.
                kinetic =    1.812689
    potential(screened) =   -3.536786
       potential(ionic) =  -11.661476

   izeta = 4
                 rmatch =    2.004519
              splitnorm =    0.368983
                 energy =   -0.954778
                kinetic =    3.368396
    potential(screened) =   -4.323174
       potential(ionic) =  -13.178438

SPLIT: Orbitals with angular momentum L= 1

SPLIT: Basis orbitals for state 2p

   izeta = 1
                 lambda =    1.000000
                     rc =   10.181049
                 energy =   -0.664314
                kinetic =    4.714332
    potential(screened) =   -5.378647
       potential(ionic) =  -12.967201

   izeta = 2
                 rmatch =    5.055603
              splitnorm =    0.008251
                 energy =   -0.656950
* WARNING: effective split_norm is quite small. Orbitals will be very similar.
                kinetic =    4.990409
    potential(screened) =   -5.647359
       potential(ionic) =  -13.410842

   izeta = 3
                 rmatch =    3.562532
              splitnorm =    0.055493
                 energy =   -0.601809
                kinetic =    5.759592
    potential(screened) =   -6.361401
       potential(ionic) =  -14.486952

   izeta = 4
                 rmatch =    2.004519
              splitnorm =    0.336744
                 energy =    0.137909
                kinetic =    9.626817
    potential(screened) =   -9.488908
       potential(ionic) =  -18.577571

SPLIT: Orbitals with angular momentum L= 2

SPLIT: Basis orbitals for state 3d
Charge confinement: Q:     6.0000

   izeta = 1
                 lambda =    1.000000
                     rc =   10.181049
                 energy =    2.007653
                kinetic =    3.859620
    potential(screened) =   -1.851967
       potential(ionic) =   -7.803212

   izeta = 2
                 rmatch =    2.004519
              splitnorm =    0.637208
                 energy =    6.650039
                kinetic =   11.560126
    potential(screened) =   -4.910087
       potential(ionic) =  -13.161977

   izeta = 3
                 rmatch =    2.990543
              splitnorm =    0.263953
                 energy =    3.559882
                kinetic =    6.528543
    potential(screened) =   -2.968661
       potential(ionic) =  -10.107962

SPLIT: Orbitals with angular momentum L= 3

SPLIT: Basis orbitals for state 4f
Charge confinement: Q:    17.0000

   izeta = 1
                 lambda =    1.000000
                     rc =   10.181049
                 energy =    4.609453
                kinetic =    6.179676
    potential(screened) =   -1.570223
       potential(ionic) =   -7.410991

   izeta = 2
                 rmatch =    1.725262
              splitnorm =    0.752552
                 energy =   15.780374
                kinetic =   20.445907
    potential(screened) =   -4.665533
       potential(ionic) =  -12.986389
atom: Total number of Sankey-type orbitals: 45

atm_pop: Valence configuration (for local Pseudopot. screening):
 2s( 2.00)                                                            
 2p( 4.00)                                                            
 3d( 0.00)                                                            
 4f( 0.00)                                                            
Vna: chval, zval:    6.00000   6.00000

Vna:  Cut-off radius for the neutral-atom potential:  10.181049
comcore: Pseudo-core radius Rcore=  1.377587

atom: _________________________________________________________________________

<basis_specs>
===============================================================================
H                    Z=   1    Mass=  1.0100        Charge= 0.17977+309
Lmxo=2 Lmxkb= 3    BasisType=split      Semic=F
L=0  Nsemic=0  Cnfigmx=1
          n=1  nzeta=4  polorb=0
            splnorm:   0.15000    
               vcte:    50.000    
               rinn:    9.0000    
               qcoe:    0.0000    
               qyuk:    0.0000    
               qwid:   0.10000E-01
                rcs:    10.000      5.0000      3.5000      2.0000    
            lambdas:    1.0000      1.0000      1.0000      1.0000    
L=1  Nsemic=0  Cnfigmx=2
          n=1  nzeta=3  polorb=0
            splnorm:   0.15000    
               vcte:    50.000    
               rinn:    9.0000    
               qcoe:    3.5000    
               qyuk:    0.0000    
               qwid:   0.10000E-01
                rcs:    10.000      2.0000      4.0000    
            lambdas:    1.0000      1.0000      1.0000    
L=2  Nsemic=0  Cnfigmx=3
          n=1  nzeta=2  polorb=0
            splnorm:   0.15000    
               vcte:    50.000    
               rinn:    9.0000    
               qcoe:    16.000    
               qyuk:   0.80000    
               qwid:   0.10000E-01
                rcs:    10.000      2.0000    
            lambdas:    1.0000      1.0000    
-------------------------------------------------------------------------------
L=0  Nkbl=1  erefs: 0.17977+309
L=1  Nkbl=1  erefs: 0.17977+309
L=2  Nkbl=1  erefs: 0.17977+309
L=3  Nkbl=1  erefs: 0.17977+309
===============================================================================
</basis_specs>

atom: Called for H                     (Z =   1)

read_vps: Pseudopotential generation method:
read_vps: ATM 3.2.2 Troullier-Martins                       
Total valence charge:    0.60000

atom: Pseudopotential generated from an ionic configuration
atom: with net charge 0.40

xc_check: Exchange-correlation functional:
xc_check: GGA Perdew, Burke & Ernzerhof 1996
xc_check: WARNING: Pseudopotential generated with GGA revPBE functional
V l=0 = -2*Zval/r beyond r=  1.2343
V l=1 = -2*Zval/r beyond r=  1.2189
V l=2 = -2*Zval/r beyond r=  1.2189
V l=3 = -2*Zval/r beyond r=  1.2038
All V_l potentials equal beyond r=  1.2343
This should be close to max(r_c) in ps generation
All pots = -2*Zval/r beyond r=  1.2343

VLOCAL1: 99.0% of the norm of Vloc inside     28.493 Ry
VLOCAL1: 99.9% of the norm of Vloc inside     64.935 Ry
atom: Maximum radius for 4*pi*r*r*local-pseudopot. charge    1.45251
atom: Maximum radius for r*vlocal+2*Zval:    1.21892
GHOST: No ghost state for L =  0
GHOST: No ghost state for L =  1
GHOST: No ghost state for L =  2
GHOST: No ghost state for L =  3

KBgen: Kleinman-Bylander projectors: 
   l= 0   rc=  1.364359   el= -0.835481   Ekb= -2.050473   kbcos= -0.374935
   l= 1   rc=  1.434438   el= -0.083696   Ekb= -0.439790   kbcos= -0.040392
   l= 2   rc=  1.470814   el= -0.018512   Ekb= -0.135383   kbcos= -0.004767
   l= 3   rc=  1.508111   el= -0.010355   Ekb= -0.058408   kbcos= -0.000784

KBgen: Total number of  Kleinman-Bylander projectors:   16
atom: -------------------------------------------------------------------------

atom: SANKEY-TYPE ORBITALS:
atom: Selected multiple-zeta basis: split     

atom: basis set generated from the ionic configuration used
atom: to generate the pseudopotential

SPLIT: Orbitals with angular momentum L= 0

SPLIT: Basis orbitals for state 1s

   izeta = 1
                 lambda =    1.000000
                     rc =    9.971704
                 energy =   -0.835496
                kinetic =    1.039073
    potential(screened) =   -1.874569
       potential(ionic) =   -2.037700

   izeta = 2
                 rmatch =    5.075940
              splitnorm =    0.029735
                 energy =   -0.816789
* WARNING: effective split_norm is quite small. Orbitals will be very similar.
                kinetic =    1.252128
    potential(screened) =   -2.068916
       potential(ionic) =   -2.226196

   izeta = 3
                 rmatch =    3.487864
              splitnorm =    0.176430
                 energy =   -0.691872
                kinetic =    1.782572
    potential(screened) =   -2.474444
       potential(ionic) =   -2.615176

   izeta = 4
                 rmatch =    2.011274
              splitnorm =    0.598000
                 energy =    0.301433
                kinetic =    3.884637
    potential(screened) =   -3.583203
       potential(ionic) =   -3.672637

SPLIT: Orbitals with angular momentum L= 1

SPLIT: Basis orbitals for state 2p
Charge confinement: Q:     3.5000

   izeta = 1
                 lambda =    1.000000
                     rc =    9.971704
                 energy =    0.711778
                kinetic =    1.888566
    potential(screened) =   -1.176788
       potential(ionic) =   -1.368090

   izeta = 2
                 rmatch =    2.011274
              splitnorm =    0.691729
                 energy =    4.504307
                kinetic =    6.792143
    potential(screened) =   -2.287836
       potential(ionic) =   -2.425880

   izeta = 3
                 rmatch =    4.052721
              splitnorm =    0.089367
                 energy =    1.150580
                kinetic =    2.529067
    potential(screened) =   -1.378487
       potential(ionic) =   -1.566684

SPLIT: Orbitals with angular momentum L= 2

SPLIT: Basis orbitals for state 3d
Charge confinement: Q:    16.0000

   izeta = 1
                 lambda =    1.000000
                     rc =    9.971704
                 energy =    3.555650
                kinetic =    4.803510
    potential(screened) =   -1.247860
       potential(ionic) =   -1.438034

   izeta = 2
                 rmatch =    2.011274
              splitnorm =    0.525433
                 energy =    9.861824
                kinetic =   11.896576
    potential(screened) =   -2.034751
       potential(ionic) =   -2.186933
atom: Total number of Sankey-type orbitals: 23

atm_pop: Valence configuration (for local Pseudopot. screening):
 1s( 1.00)                                                            
 2p( 0.00)                                                            
 3d( 0.00)                                                            
Vna: chval, zval:    1.00000   1.00000

Vna:  Cut-off radius for the neutral-atom potential:   9.971704

atom: _________________________________________________________________________

prinput: Basis input ----------------------------------------------------------

PAO.BasisType split     

%block ChemicalSpeciesLabel
    1    8 O                       # Species index, atomic number, species label
    2    1 H                       # Species index, atomic number, species label
%endblock ChemicalSpeciesLabel

%block PAO.Basis                 # Define Basis set
O                     4                    # Species label, number of l-shells
 n=2   0   4                         # n, l, Nzeta 
  10.181      5.056      3.563      2.005   
   1.000      1.000      1.000      1.000   
 n=2   1   4                         # n, l, Nzeta 
  10.181      5.056      3.563      2.005   
   1.000      1.000      1.000      1.000   
 n=3   2   3                         # n, l, Nzeta 
  10.181      2.005      2.991   
   1.000      1.000      1.000   
 n=4   3   2                         # n, l, Nzeta 
  10.181      1.725   
   1.000      1.000   
H                     3   0.400            # Label, l-shells, ionic net charge
 n=1   0   4                         # n, l, Nzeta 
   9.972      5.076      3.488      2.011   
   1.000      1.000      1.000      1.000   
 n=2   1   3                         # n, l, Nzeta 
   9.972      2.011      4.053   
   1.000      1.000      1.000   
 n=3   2   2                         # n, l, Nzeta 
   9.972      2.011   
   1.000      1.000   
%endblock PAO.Basis

prinput: ----------------------------------------------------------------------

coor:   Atomic-coordinates input format  =     Cartesian coordinates
coor:                                          (in Angstroms)

siesta: Atomic coordinates (Bohr) and species
siesta:      3.11805   4.32747  14.55090  1        1
siesta:      2.19208   4.72432  16.06268  2        2
siesta:      1.88973   3.53379  13.47375  2        3
siesta:      9.78879  17.85792  16.42173  1        4
siesta:      8.31480  18.12248  15.40127  2        5
siesta:      9.69430  16.11937  16.91306  2        6
siesta:     12.94463   8.91951   5.14006  1        7
siesta:     12.90683   8.35259   3.42041  2        8
siesta:     14.45641   8.20141   5.82036  2        9
siesta:     10.58247   7.14317  18.42484  1       10
siesta:      9.95886   7.06758  16.72408  2       11
siesta:      9.08959   7.23765  19.42639  2       12
siesta:      0.66140   8.93841  13.68162  1       13
siesta:     -0.98266   9.67540  13.66273  2       14
siesta:      0.49133   7.46442  14.70208  2       15
siesta:      5.74477   0.49133  12.62338  1       16
siesta:      7.23765   0.73699  11.62182  2       17
siesta:      5.27234   2.15429  13.15250  2       18
siesta:      1.37950  17.76343  18.16028  1       19
siesta:     -0.05669  16.70519  17.85792  2       20
siesta:      1.09604  18.48153  19.78544  2       21
siesta:     11.50844  13.81390   5.53690  1       22
siesta:      9.76989  13.62493   5.02667  2       23
siesta:     12.01866  12.15094   6.00933  2       24
siesta:     12.98242  15.26899  10.31791  1       25
siesta:     13.88949  13.88949  11.01711  2       26
siesta:     12.43440  14.66428   8.69274  2       27
siesta:      2.57003   6.84081   9.41084  1       28
siesta:      4.19519   6.31169  10.01555  2       29
siesta:      1.68186   7.36993  10.90372  2       30
siesta:      5.38572   1.02045   3.25033  1       31
siesta:      4.95108   1.54958   1.56847  2       32
siesta:      3.77945   0.86927   4.10071  2       33
siesta:      5.76367  14.32413   3.81725  1       34
siesta:      5.99043  16.10047   3.49599  2       35
siesta:      5.63139  14.19185   5.61249  2       36
siesta:      5.82036   9.78879  15.51466  1       37
siesta:      5.17785  10.37460  17.10203  2       38
siesta:      4.36527   9.75099  14.41862  2       39
siesta:     12.11315   4.72432  12.98242  1       40
siesta:     12.03756   2.92908  13.26588  2       41
siesta:     13.85170   5.06447  12.60448  2       42
siesta:     14.47531   0.00000   4.08181  1       43
siesta:     12.79345  -0.37795   4.62983  2       44
siesta:     14.22964   1.02045   2.60782  2       45
siesta:      9.22187  10.69585  11.69741  1       46
siesta:      8.18252  10.26122  13.11470  2       47
siesta:      9.54312   9.10848  10.86593  2       48
siesta:      2.92908  11.11159   1.28501  1       49
siesta:      3.83615  12.39661   2.15429  2       50
siesta:      1.19053  11.58403   1.45509  2       51
siesta:      2.70231  15.11782  14.17295  1       52
siesta:      1.75745  13.88949  15.09892  2       53
siesta:      2.55113  16.62960  15.17451  2       54
siesta:     15.28789  14.17295  17.02644  1       55
siesta:     15.81701  13.88949  18.72719  2       56
siesta:     13.85170  15.25010  17.17762  2       57
siesta:     17.49887   5.10226  -0.26456  1       58
siesta:     17.57446   5.29124   1.53068  2       59
siesta:     15.94929   4.19519  -0.54802  2       60
siesta:      6.55735   7.21876   2.79680  1       61
siesta:      5.55580   8.73054   2.85349  2       62
siesta:      5.36682   5.87705   3.11805  2       63
siesta:      0.03779   7.19986   4.72432  1       64
siesta:      0.64251   7.42663   6.40617  2       65
siesta:      1.36060   7.88016   3.68497  2       66
siesta:     17.23431   2.66451  11.28167  1       67
siesta:     17.76343   0.94486  11.01711  2       68
siesta:     17.04534   3.34482   9.59981  2       69
siesta:      7.95575   5.68808  10.16673  1       70
siesta:      9.31635   5.31013  11.30057  2       71
siesta:      8.01244   4.36527   8.93841  2       72
siesta:     16.83747  13.54934   3.55269  1       73
siesta:     15.23120  13.47375   4.38417  2       74
siesta:     17.85792  14.56979   4.62983  2       75
siesta:     17.97130  16.00599   9.92107  1       76
siesta:     18.95396  15.68473  11.39505  2       77
siesta:     16.25165  15.94929  10.50688  2       78
siesta:     14.17295  10.84703  13.00132  1       79
siesta:     14.39972  12.20764  14.17295  2       80
siesta:     12.39661  10.82814  12.68007  2       81
siesta:      9.01400   0.69920   6.78412  1       82
siesta:      8.42818  -0.83148   7.54001  2       83
siesta:      8.08803   0.83148   5.23454  2       84
siesta:      6.02823  14.58869   9.16518  1       85
siesta:      7.14317  13.22809   9.63761  2       86
siesta:      5.78256  15.51466  10.69585  2       87
siesta:      0.77479  18.50043   5.53690  1       88
siesta:      0.56692  17.82012   7.19986  2       89
siesta:     -0.90707  18.65160   4.89439  2       90
siesta:     13.03912   2.70231  18.31145  1       91
siesta:     11.98087   4.15740  18.27366  2       92
siesta:     11.99977   1.34171  17.72564  2       93
siesta:      9.63761  12.92573  17.66895  1       94
siesta:      8.18252  12.26433  16.83747  2       95
siesta:     10.48798  11.45174  18.31145  2       96

siesta: System type = bulk      

initatomlists: Number of atoms, orbitals, and projectors:     96  2912  1536

siesta: ******************** Simulation parameters ****************************
siesta:
siesta: The following are some of the parameters of the simulation.
siesta: A complete list of the parameters used, including default values,
siesta: can be found in file out.fdf
siesta:
redata: Non-Collinear-spin run           =     F
redata: SpinPolarized (Up/Down) run      =     F
redata: Number of spin components        =     1
redata: Long output                      =     F
redata: Number of Atomic Species         =        2
redata: Charge density info will appear in .RHO file
redata: Write Mulliken Pop.              =     NO
redata: Mesh Cutoff                      =   150.0000  Ry
redata: Net charge of the system         =     0.0000 |e|
redata: Min. number of SCF Iter          =        0
redata: Max. number of SCF Iter          =       50
redata: Mix DM or H after convergence    =     F
redata: Recompute H after scf cycle      =     F
redata: Performing Pulay mixing using    =     3 iterations
redata: Mix DM in first SCF step ?       =     F
redata: Write Pulay info on disk?        =     F
redata: Discard 1st Pulay DM after  kick =     F
redata: New DM Mixing Weight             =     0.3000
redata: New DM Occupancy tolerance       = 0.000000000001
redata: No kicks to SCF
redata: DM Mixing Weight for Kicks       =     0.5000
redata: DM Tolerance for SCF             =     0.000100
redata: Require (free) Energy convergence in SCF =     F
redata: DM (free)Energy tolerance for SCF =     0.000010 eV
redata: Require Harris convergence for SCF =     F
redata: DM Harris energy tolerance for SCF =     0.000010 eV
redata: Using Saved Data (generic)   =     F
redata: Use continuation files for DM    =     F
redata: Neglect nonoverlap interactions  =     F
redata: Method of Calculation            =     old SLEPc
redata: Fix the spin of the system       =     F
redata: Dynamics option                  =     Single-point calculation
redata: ***********************************************************************
Total number of electrons:   256.000000
Total ionic charge:   256.000000

* ProcessorY, Blocksize:   32  91


* Orbital distribution balance (max,min):    91     0

 Kpoints in:  1 . Kpoints trimmed:  1

siesta: k-grid: Number of k-points =     1
siesta: k-grid: Cutoff (effective) =     4.928 Ang
siesta: k-grid: Supercell and displacements
siesta: k-grid:    1   0   0      0.000
siesta: k-grid:    0   1   0      0.000
siesta: k-grid:    0   0   1      0.000

                     ====================================
                        Single-point calculation
                     ====================================

outcell: Unit cell vectors (Ang):
        9.856391    0.000000    0.000000
        0.000000    9.856391    0.000000
        0.000000    0.000000    9.856391

outcell: Cell vector modules (Ang)   :    9.856391    9.856391    9.856391
outcell: Cell angles (23,13,12) (deg):     90.0000     90.0000     90.0000
outcell: Cell volume (Ang**3)        :    957.5332
 Folding of H and S is implicitly performed
New_DM. Step:     1
Initializing Density Matrix...
New grid distribution:   1
           1       1:   40    1:    2    1:    2
           2       1:   40    1:    2    3:    4
           3       1:   40    1:    2    5:    6
           4       1:   40    1:    2    7:    8
           5       1:   40    1:    2    9:   10
           6       1:   40    1:    2   11:   12
           7       1:   40    1:    2   13:   14
           8       1:   40    1:    2   15:   16
           9       1:   40    1:    2   17:   17
          10       1:   40    1:    2   18:   18
          11       1:   40    1:    2   19:   19
          12       1:   40    1:    2   20:   20
          13       1:   40    1:    2   21:   21
          14       1:   40    1:    2   22:   22
          15       1:   40    1:    2   23:   23
          16       1:   40    1:    2   24:   24
          17       1:   40    1:    2   25:   25
          18       1:   40    1:    2   26:   26
          19       1:   40    1:    2   27:   27
          20       1:   40    1:    2   28:   28
          21       1:   40    1:    2   29:   29
          22       1:   40    1:    2   30:   30
          23       1:   40    1:    2   31:   31
          24       1:   40    1:    2   32:   32
          25       1:   40    1:    2   33:   33
          26       1:   40    1:    2   34:   34
          27       1:   40    1:    2   35:   35
          28       1:   40    1:    2   36:   36
          29       1:   40    1:    2   37:   37
          30       1:   40    1:    2   38:   38
          31       1:   40    1:    2   39:   39
          32       1:   40    1:    2   40:   40
          33       1:   40    3:    4    1:    2
          34       1:   40    3:    4    3:    4
          35       1:   40    3:    4    5:    6
          36       1:   40    3:    4    7:    8
          37       1:   40    3:    4    9:   10
          38       1:   40    3:    4   11:   12
          39       1:   40    3:    4   13:   14
          40       1:   40    3:    4   15:   16
          41       1:   40    3:    4   17:   17
          42       1:   40    3:    4   18:   18
          43       1:   40    3:    4   19:   19
          44       1:   40    3:    4   20:   20
          45       1:   40    3:    4   21:   21
          46       1:   40    3:    4   22:   22
          47       1:   40    3:    4   23:   23
          48       1:   40    3:    4   24:   24
          49       1:   40    3:    4   25:   25
          50       1:   40    3:    4   26:   26
          51       1:   40    3:    4   27:   27
          52       1:   40    3:    4   28:   28
          53       1:   40    3:    4   29:   29
          54       1:   40    3:    4   30:   30
          55       1:   40    3:    4   31:   31
          56       1:   40    3:    4   32:   32
          57       1:   40    3:    4   33:   33
          58       1:   40    3:    4   34:   34
          59       1:   40    3:    4   35:   35
          60       1:   40    3:    4   36:   36
          61       1:   40    3:    4   37:   37
          62       1:   40    3:    4   38:   38
          63       1:   40    3:    4   39:   39
          64       1:   40    3:    4   40:   40
          65       1:   40    5:    6    1:    2
          66       1:   40    5:    6    3:    4
          67       1:   40    5:    6    5:    6
          68       1:   40    5:    6    7:    8
          69       1:   40    5:    6    9:   10
          70       1:   40    5:    6   11:   12
          71       1:   40    5:    6   13:   14
          72       1:   40    5:    6   15:   16
          73       1:   40    5:    6   17:   17
          74       1:   40    5:    6   18:   18
          75       1:   40    5:    6   19:   19
          76       1:   40    5:    6   20:   20
          77       1:   40    5:    6   21:   21
          78       1:   40    5:    6   22:   22
          79       1:   40    5:    6   23:   23
          80       1:   40    5:    6   24:   24
          81       1:   40    5:    6   25:   25
          82       1:   40    5:    6   26:   26
          83       1:   40    5:    6   27:   27
          84       1:   40    5:    6   28:   28
          85       1:   40    5:    6   29:   29
          86       1:   40    5:    6   30:   30
          87       1:   40    5:    6   31:   31
          88       1:   40    5:    6   32:   32
          89       1:   40    5:    6   33:   33
          90       1:   40    5:    6   34:   34
          91       1:   40    5:    6   35:   35
          92       1:   40    5:    6   36:   36
          93       1:   40    5:    6   37:   37
          94       1:   40    5:    6   38:   38
          95       1:   40    5:    6   39:   39
          96       1:   40    5:    6   40:   40
          97       1:   40    7:    8    1:    2
          98       1:   40    7:    8    3:    4
          99       1:   40    7:    8    5:    6
         100       1:   40    7:    8    7:    8
         101       1:   40    7:    8    9:   10
         102       1:   40    7:    8   11:   12
         103       1:   40    7:    8   13:   14
         104       1:   40    7:    8   15:   16
         105       1:   40    7:    8   17:   17
         106       1:   40    7:    8   18:   18
         107       1:   40    7:    8   19:   19
         108       1:   40    7:    8   20:   20
         109       1:   40    7:    8   21:   21
         110       1:   40    7:    8   22:   22
         111       1:   40    7:    8   23:   23
         112       1:   40    7:    8   24:   24
         113       1:   40    7:    8   25:   25
         114       1:   40    7:    8   26:   26
         115       1:   40    7:    8   27:   27
         116       1:   40    7:    8   28:   28
         117       1:   40    7:    8   29:   29
         118       1:   40    7:    8   30:   30
         119       1:   40    7:    8   31:   31
         120       1:   40    7:    8   32:   32
         121       1:   40    7:    8   33:   33
         122       1:   40    7:    8   34:   34
         123       1:   40    7:    8   35:   35
         124       1:   40    7:    8   36:   36
         125       1:   40    7:    8   37:   37
         126       1:   40    7:    8   38:   38
         127       1:   40    7:    8   39:   39
         128       1:   40    7:    8   40:   40
         129       1:   40    9:   10    1:    2
         130       1:   40    9:   10    3:    4
         131       1:   40    9:   10    5:    6
         132       1:   40    9:   10    7:    8
         133       1:   40    9:   10    9:   10
         134       1:   40    9:   10   11:   12
         135       1:   40    9:   10   13:   14
         136       1:   40    9:   10   15:   16
         137       1:   40    9:   10   17:   17
         138       1:   40    9:   10   18:   18
         139       1:   40    9:   10   19:   19
         140       1:   40    9:   10   20:   20
         141       1:   40    9:   10   21:   21
         142       1:   40    9:   10   22:   22
         143       1:   40    9:   10   23:   23
         144       1:   40    9:   10   24:   24
         145       1:   40    9:   10   25:   25
         146       1:   40    9:   10   26:   26
         147       1:   40    9:   10   27:   27
         148       1:   40    9:   10   28:   28
         149       1:   40    9:   10   29:   29
         150       1:   40    9:   10   30:   30
         151       1:   40    9:   10   31:   31
         152       1:   40    9:   10   32:   32
         153       1:   40    9:   10   33:   33
         154       1:   40    9:   10   34:   34
         155       1:   40    9:   10   35:   35
         156       1:   40    9:   10   36:   36
         157       1:   40    9:   10   37:   37
         158       1:   40    9:   10   38:   38
         159       1:   40    9:   10   39:   39
         160       1:   40    9:   10   40:   40
         161       1:   40   11:   12    1:    2
         162       1:   40   11:   12    3:    4
         163       1:   40   11:   12    5:    6
         164       1:   40   11:   12    7:    8
         165       1:   40   11:   12    9:   10
         166       1:   40   11:   12   11:   12
         167       1:   40   11:   12   13:   14
         168       1:   40   11:   12   15:   16
         169       1:   40   11:   12   17:   17
         170       1:   40   11:   12   18:   18
         171       1:   40   11:   12   19:   19
         172       1:   40   11:   12   20:   20
         173       1:   40   11:   12   21:   21
         174       1:   40   11:   12   22:   22
         175       1:   40   11:   12   23:   23
         176       1:   40   11:   12   24:   24
         177       1:   40   11:   12   25:   25
         178       1:   40   11:   12   26:   26
         179       1:   40   11:   12   27:   27
         180       1:   40   11:   12   28:   28
         181       1:   40   11:   12   29:   29
         182       1:   40   11:   12   30:   30
         183       1:   40   11:   12   31:   31
         184       1:   40   11:   12   32:   32
         185       1:   40   11:   12   33:   33
         186       1:   40   11:   12   34:   34
         187       1:   40   11:   12   35:   35
         188       1:   40   11:   12   36:   36
         189       1:   40   11:   12   37:   37
         190       1:   40   11:   12   38:   38
         191       1:   40   11:   12   39:   39
         192       1:   40   11:   12   40:   40
         193       1:   40   13:   14    1:    2
         194       1:   40   13:   14    3:    4
         195       1:   40   13:   14    5:    6
         196       1:   40   13:   14    7:    8
         197       1:   40   13:   14    9:   10
         198       1:   40   13:   14   11:   12
         199       1:   40   13:   14   13:   14
         200       1:   40   13:   14   15:   16
         201       1:   40   13:   14   17:   17
         202       1:   40   13:   14   18:   18
         203       1:   40   13:   14   19:   19
         204       1:   40   13:   14   20:   20
         205       1:   40   13:   14   21:   21
         206       1:   40   13:   14   22:   22
         207       1:   40   13:   14   23:   23
         208       1:   40   13:   14   24:   24
         209       1:   40   13:   14   25:   25
         210       1:   40   13:   14   26:   26
         211       1:   40   13:   14   27:   27
         212       1:   40   13:   14   28:   28
         213       1:   40   13:   14   29:   29
         214       1:   40   13:   14   30:   30
         215       1:   40   13:   14   31:   31
         216       1:   40   13:   14   32:   32
         217       1:   40   13:   14   33:   33
         218       1:   40   13:   14   34:   34
         219       1:   40   13:   14   35:   35
         220       1:   40   13:   14   36:   36
         221       1:   40   13:   14   37:   37
         222       1:   40   13:   14   38:   38
         223       1:   40   13:   14   39:   39
         224       1:   40   13:   14   40:   40
         225       1:   40   15:   16    1:    2
         226       1:   40   15:   16    3:    4
         227       1:   40   15:   16    5:    6
         228       1:   40   15:   16    7:    8
         229       1:   40   15:   16    9:   10
         230       1:   40   15:   16   11:   12
         231       1:   40   15:   16   13:   14
         232       1:   40   15:   16   15:   16
         233       1:   40   15:   16   17:   17
         234       1:   40   15:   16   18:   18
         235       1:   40   15:   16   19:   19
         236       1:   40   15:   16   20:   20
         237       1:   40   15:   16   21:   21
         238       1:   40   15:   16   22:   22
         239       1:   40   15:   16   23:   23
         240       1:   40   15:   16   24:   24
         241       1:   40   15:   16   25:   25
         242       1:   40   15:   16   26:   26
         243       1:   40   15:   16   27:   27
         244       1:   40   15:   16   28:   28
         245       1:   40   15:   16   29:   29
         246       1:   40   15:   16   30:   30
         247       1:   40   15:   16   31:   31
         248       1:   40   15:   16   32:   32
         249       1:   40   15:   16   33:   33
         250       1:   40   15:   16   34:   34
         251       1:   40   15:   16   35:   35
         252       1:   40   15:   16   36:   36
         253       1:   40   15:   16   37:   37
         254       1:   40   15:   16   38:   38
         255       1:   40   15:   16   39:   39
         256       1:   40   15:   16   40:   40
         257       1:   40   17:   17    1:    2
         258       1:   40   17:   17    3:    4
         259       1:   40   17:   17    5:    6
         260       1:   40   17:   17    7:    8
         261       1:   40   17:   17    9:   10
         262       1:   40   17:   17   11:   12
         263       1:   40   17:   17   13:   14
         264       1:   40   17:   17   15:   16
         265       1:   40   17:   17   17:   17
         266       1:   40   17:   17   18:   18
         267       1:   40   17:   17   19:   19
         268       1:   40   17:   17   20:   20
         269       1:   40   17:   17   21:   21
         270       1:   40   17:   17   22:   22
         271       1:   40   17:   17   23:   23
         272       1:   40   17:   17   24:   24
         273       1:   40   17:   17   25:   25
         274       1:   40   17:   17   26:   26
         275       1:   40   17:   17   27:   27
         276       1:   40   17:   17   28:   28
         277       1:   40   17:   17   29:   29
         278       1:   40   17:   17   30:   30
         279       1:   40   17:   17   31:   31
         280       1:   40   17:   17   32:   32
         281       1:   40   17:   17   33:   33
         282       1:   40   17:   17   34:   34
         283       1:   40   17:   17   35:   35
         284       1:   40   17:   17   36:   36
         285       1:   40   17:   17   37:   37
         286       1:   40   17:   17   38:   38
         287       1:   40   17:   17   39:   39
         288       1:   40   17:   17   40:   40
         289       1:   40   18:   18    1:    2
         290       1:   40   18:   18    3:    4
         291       1:   40   18:   18    5:    6
         292       1:   40   18:   18    7:    8
         293       1:   40   18:   18    9:   10
         294       1:   40   18:   18   11:   12
         295       1:   40   18:   18   13:   14
         296       1:   40   18:   18   15:   16
         297       1:   40   18:   18   17:   17
         298       1:   40   18:   18   18:   18
         299       1:   40   18:   18   19:   19
         300       1:   40   18:   18   20:   20
         301       1:   40   18:   18   21:   21
         302       1:   40   18:   18   22:   22
         303       1:   40   18:   18   23:   23
         304       1:   40   18:   18   24:   24
         305       1:   40   18:   18   25:   25
         306       1:   40   18:   18   26:   26
         307       1:   40   18:   18   27:   27
         308       1:   40   18:   18   28:   28
         309       1:   40   18:   18   29:   29
         310       1:   40   18:   18   30:   30
         311       1:   40   18:   18   31:   31
         312       1:   40   18:   18   32:   32
         313       1:   40   18:   18   33:   33
         314       1:   40   18:   18   34:   34
         315       1:   40   18:   18   35:   35
         316       1:   40   18:   18   36:   36
         317       1:   40   18:   18   37:   37
         318       1:   40   18:   18   38:   38
         319       1:   40   18:   18   39:   39
         320       1:   40   18:   18   40:   40
         321       1:   40   19:   19    1:    2
         322       1:   40   19:   19    3:    4
         323       1:   40   19:   19    5:    6
         324       1:   40   19:   19    7:    8
         325       1:   40   19:   19    9:   10
         326       1:   40   19:   19   11:   12
         327       1:   40   19:   19   13:   14
         328       1:   40   19:   19   15:   16
         329       1:   40   19:   19   17:   17
         330       1:   40   19:   19   18:   18
         331       1:   40   19:   19   19:   19
         332       1:   40   19:   19   20:   20
         333       1:   40   19:   19   21:   21
         334       1:   40   19:   19   22:   22
         335       1:   40   19:   19   23:   23
         336       1:   40   19:   19   24:   24
         337       1:   40   19:   19   25:   25
         338       1:   40   19:   19   26:   26
         339       1:   40   19:   19   27:   27
         340       1:   40   19:   19   28:   28
         341       1:   40   19:   19   29:   29
         342       1:   40   19:   19   30:   30
         343       1:   40   19:   19   31:   31
         344       1:   40   19:   19   32:   32
         345       1:   40   19:   19   33:   33
         346       1:   40   19:   19   34:   34
         347       1:   40   19:   19   35:   35
         348       1:   40   19:   19   36:   36
         349       1:   40   19:   19   37:   37
         350       1:   40   19:   19   38:   38
         351       1:   40   19:   19   39:   39
         352       1:   40   19:   19   40:   40
         353       1:   40   20:   20    1:    2
         354       1:   40   20:   20    3:    4
         355       1:   40   20:   20    5:    6
         356       1:   40   20:   20    7:    8
         357       1:   40   20:   20    9:   10
         358       1:   40   20:   20   11:   12
         359       1:   40   20:   20   13:   14
         360       1:   40   20:   20   15:   16
         361       1:   40   20:   20   17:   17
         362       1:   40   20:   20   18:   18
         363       1:   40   20:   20   19:   19
         364       1:   40   20:   20   20:   20
         365       1:   40   20:   20   21:   21
         366       1:   40   20:   20   22:   22
         367       1:   40   20:   20   23:   23
         368       1:   40   20:   20   24:   24
         369       1:   40   20:   20   25:   25
         370       1:   40   20:   20   26:   26
         371       1:   40   20:   20   27:   27
         372       1:   40   20:   20   28:   28
         373       1:   40   20:   20   29:   29
         374       1:   40   20:   20   30:   30
         375       1:   40   20:   20   31:   31
         376       1:   40   20:   20   32:   32
         377       1:   40   20:   20   33:   33
         378       1:   40   20:   20   34:   34
         379       1:   40   20:   20   35:   35
         380       1:   40   20:   20   36:   36
         381       1:   40   20:   20   37:   37
         382       1:   40   20:   20   38:   38
         383       1:   40   20:   20   39:   39
         384       1:   40   20:   20   40:   40
         385       1:   40   21:   21    1:    2
         386       1:   40   21:   21    3:    4
         387       1:   40   21:   21    5:    6
         388       1:   40   21:   21    7:    8
         389       1:   40   21:   21    9:   10
         390       1:   40   21:   21   11:   12
         391       1:   40   21:   21   13:   14
         392       1:   40   21:   21   15:   16
         393       1:   40   21:   21   17:   17
         394       1:   40   21:   21   18:   18
         395       1:   40   21:   21   19:   19
         396       1:   40   21:   21   20:   20
         397       1:   40   21:   21   21:   21
         398       1:   40   21:   21   22:   22
         399       1:   40   21:   21   23:   23
         400       1:   40   21:   21   24:   24
         401       1:   40   21:   21   25:   25
         402       1:   40   21:   21   26:   26
         403       1:   40   21:   21   27:   27
         404       1:   40   21:   21   28:   28
         405       1:   40   21:   21   29:   29
         406       1:   40   21:   21   30:   30
         407       1:   40   21:   21   31:   31
         408       1:   40   21:   21   32:   32
         409       1:   40   21:   21   33:   33
         410       1:   40   21:   21   34:   34
         411       1:   40   21:   21   35:   35
         412       1:   40   21:   21   36:   36
         413       1:   40   21:   21   37:   37
         414       1:   40   21:   21   38:   38
         415       1:   40   21:   21   39:   39
         416       1:   40   21:   21   40:   40
         417       1:   40   22:   22    1:    2
         418       1:   40   22:   22    3:    4
         419       1:   40   22:   22    5:    6
         420       1:   40   22:   22    7:    8
         421       1:   40   22:   22    9:   10
         422       1:   40   22:   22   11:   12
         423       1:   40   22:   22   13:   14
         424       1:   40   22:   22   15:   16
         425       1:   40   22:   22   17:   17
         426       1:   40   22:   22   18:   18
         427       1:   40   22:   22   19:   19
         428       1:   40   22:   22   20:   20
         429       1:   40   22:   22   21:   21
         430       1:   40   22:   22   22:   22
         431       1:   40   22:   22   23:   23
         432       1:   40   22:   22   24:   24
         433       1:   40   22:   22   25:   25
         434       1:   40   22:   22   26:   26
         435       1:   40   22:   22   27:   27
         436       1:   40   22:   22   28:   28
         437       1:   40   22:   22   29:   29
         438       1:   40   22:   22   30:   30
         439       1:   40   22:   22   31:   31
         440       1:   40   22:   22   32:   32
         441       1:   40   22:   22   33:   33
         442       1:   40   22:   22   34:   34
         443       1:   40   22:   22   35:   35
         444       1:   40   22:   22   36:   36
         445       1:   40   22:   22   37:   37
         446       1:   40   22:   22   38:   38
         447       1:   40   22:   22   39:   39
         448       1:   40   22:   22   40:   40
         449       1:   40   23:   23    1:    2
         450       1:   40   23:   23    3:    4
         451       1:   40   23:   23    5:    6
         452       1:   40   23:   23    7:    8
         453       1:   40   23:   23    9:   10
         454       1:   40   23:   23   11:   12
         455       1:   40   23:   23   13:   14
         456       1:   40   23:   23   15:   16
         457       1:   40   23:   23   17:   17
         458       1:   40   23:   23   18:   18
         459       1:   40   23:   23   19:   19
         460       1:   40   23:   23   20:   20
         461       1:   40   23:   23   21:   21
         462       1:   40   23:   23   22:   22
         463       1:   40   23:   23   23:   23
         464       1:   40   23:   23   24:   24
         465       1:   40   23:   23   25:   25
         466       1:   40   23:   23   26:   26
         467       1:   40   23:   23   27:   27
         468       1:   40   23:   23   28:   28
         469       1:   40   23:   23   29:   29
         470       1:   40   23:   23   30:   30
         471       1:   40   23:   23   31:   31
         472       1:   40   23:   23   32:   32
         473       1:   40   23:   23   33:   33
         474       1:   40   23:   23   34:   34
         475       1:   40   23:   23   35:   35
         476       1:   40   23:   23   36:   36
         477       1:   40   23:   23   37:   37
         478       1:   40   23:   23   38:   38
         479       1:   40   23:   23   39:   39
         480       1:   40   23:   23   40:   40
         481       1:   40   24:   24    1:    2
         482       1:   40   24:   24    3:    4
         483       1:   40   24:   24    5:    6
         484       1:   40   24:   24    7:    8
         485       1:   40   24:   24    9:   10
         486       1:   40   24:   24   11:   12
         487       1:   40   24:   24   13:   14
         488       1:   40   24:   24   15:   16
         489       1:   40   24:   24   17:   17
         490       1:   40   24:   24   18:   18
         491       1:   40   24:   24   19:   19
         492       1:   40   24:   24   20:   20
         493       1:   40   24:   24   21:   21
         494       1:   40   24:   24   22:   22
         495       1:   40   24:   24   23:   23
         496       1:   40   24:   24   24:   24
         497       1:   40   24:   24   25:   25
         498       1:   40   24:   24   26:   26
         499       1:   40   24:   24   27:   27
         500       1:   40   24:   24   28:   28
         501       1:   40   24:   24   29:   29
         502       1:   40   24:   24   30:   30
         503       1:   40   24:   24   31:   31
         504       1:   40   24:   24   32:   32
         505       1:   40   24:   24   33:   33
         506       1:   40   24:   24   34:   34
         507       1:   40   24:   24   35:   35
         508       1:   40   24:   24   36:   36
         509       1:   40   24:   24   37:   37
         510       1:   40   24:   24   38:   38
         511       1:   40   24:   24   39:   39
         512       1:   40   24:   24   40:   40
         513       1:   40   25:   25    1:    2
         514       1:   40   25:   25    3:    4
         515       1:   40   25:   25    5:    6
         516       1:   40   25:   25    7:    8
         517       1:   40   25:   25    9:   10
         518       1:   40   25:   25   11:   12
         519       1:   40   25:   25   13:   14
         520       1:   40   25:   25   15:   16
         521       1:   40   25:   25   17:   17
         522       1:   40   25:   25   18:   18
         523       1:   40   25:   25   19:   19
         524       1:   40   25:   25   20:   20
         525       1:   40   25:   25   21:   21
         526       1:   40   25:   25   22:   22
         527       1:   40   25:   25   23:   23
         528       1:   40   25:   25   24:   24
         529       1:   40   25:   25   25:   25
         530       1:   40   25:   25   26:   26
         531       1:   40   25:   25   27:   27
         532       1:   40   25:   25   28:   28
         533       1:   40   25:   25   29:   29
         534       1:   40   25:   25   30:   30
         535       1:   40   25:   25   31:   31
         536       1:   40   25:   25   32:   32
         537       1:   40   25:   25   33:   33
         538       1:   40   25:   25   34:   34
         539       1:   40   25:   25   35:   35
         540       1:   40   25:   25   36:   36
         541       1:   40   25:   25   37:   37
         542       1:   40   25:   25   38:   38
         543       1:   40   25:   25   39:   39
         544       1:   40   25:   25   40:   40
         545       1:   40   26:   26    1:    2
         546       1:   40   26:   26    3:    4
         547       1:   40   26:   26    5:    6
         548       1:   40   26:   26    7:    8
         549       1:   40   26:   26    9:   10
         550       1:   40   26:   26   11:   12
         551       1:   40   26:   26   13:   14
         552       1:   40   26:   26   15:   16
         553       1:   40   26:   26   17:   17
         554       1:   40   26:   26   18:   18
         555       1:   40   26:   26   19:   19
         556       1:   40   26:   26   20:   20
         557       1:   40   26:   26   21:   21
         558       1:   40   26:   26   22:   22
         559       1:   40   26:   26   23:   23
         560       1:   40   26:   26   24:   24
         561       1:   40   26:   26   25:   25
         562       1:   40   26:   26   26:   26
         563       1:   40   26:   26   27:   27
         564       1:   40   26:   26   28:   28
         565       1:   40   26:   26   29:   29
         566       1:   40   26:   26   30:   30
         567       1:   40   26:   26   31:   31
         568       1:   40   26:   26   32:   32
         569       1:   40   26:   26   33:   33
         570       1:   40   26:   26   34:   34
         571       1:   40   26:   26   35:   35
         572       1:   40   26:   26   36:   36
         573       1:   40   26:   26   37:   37
         574       1:   40   26:   26   38:   38
         575       1:   40   26:   26   39:   39
         576       1:   40   26:   26   40:   40
         577       1:   40   27:   27    1:    2
         578       1:   40   27:   27    3:    4
         579       1:   40   27:   27    5:    6
         580       1:   40   27:   27    7:    8
         581       1:   40   27:   27    9:   10
         582       1:   40   27:   27   11:   12
         583       1:   40   27:   27   13:   14
         584       1:   40   27:   27   15:   16
         585       1:   40   27:   27   17:   17
         586       1:   40   27:   27   18:   18
         587       1:   40   27:   27   19:   19
         588       1:   40   27:   27   20:   20
         589       1:   40   27:   27   21:   21
         590       1:   40   27:   27   22:   22
         591       1:   40   27:   27   23:   23
         592       1:   40   27:   27   24:   24
         593       1:   40   27:   27   25:   25
         594       1:   40   27:   27   26:   26
         595       1:   40   27:   27   27:   27
         596       1:   40   27:   27   28:   28
         597       1:   40   27:   27   29:   29
         598       1:   40   27:   27   30:   30
         599       1:   40   27:   27   31:   31
         600       1:   40   27:   27   32:   32
         601       1:   40   27:   27   33:   33
         602       1:   40   27:   27   34:   34
         603       1:   40   27:   27   35:   35
         604       1:   40   27:   27   36:   36
         605       1:   40   27:   27   37:   37
         606       1:   40   27:   27   38:   38
         607       1:   40   27:   27   39:   39
         608       1:   40   27:   27   40:   40
         609       1:   40   28:   28    1:    2
         610       1:   40   28:   28    3:    4
         611       1:   40   28:   28    5:    6
         612       1:   40   28:   28    7:    8
         613       1:   40   28:   28    9:   10
         614       1:   40   28:   28   11:   12
         615       1:   40   28:   28   13:   14
         616       1:   40   28:   28   15:   16
         617       1:   40   28:   28   17:   17
         618       1:   40   28:   28   18:   18
         619       1:   40   28:   28   19:   19
         620       1:   40   28:   28   20:   20
         621       1:   40   28:   28   21:   21
         622       1:   40   28:   28   22:   22
         623       1:   40   28:   28   23:   23
         624       1:   40   28:   28   24:   24
         625       1:   40   28:   28   25:   25
         626       1:   40   28:   28   26:   26
         627       1:   40   28:   28   27:   27
         628       1:   40   28:   28   28:   28
         629       1:   40   28:   28   29:   29
         630       1:   40   28:   28   30:   30
         631       1:   40   28:   28   31:   31
         632       1:   40   28:   28   32:   32
         633       1:   40   28:   28   33:   33
         634       1:   40   28:   28   34:   34
         635       1:   40   28:   28   35:   35
         636       1:   40   28:   28   36:   36
         637       1:   40   28:   28   37:   37
         638       1:   40   28:   28   38:   38
         639       1:   40   28:   28   39:   39
         640       1:   40   28:   28   40:   40
         641       1:   40   29:   29    1:    2
         642       1:   40   29:   29    3:    4
         643       1:   40   29:   29    5:    6
         644       1:   40   29:   29    7:    8
         645       1:   40   29:   29    9:   10
         646       1:   40   29:   29   11:   12
         647       1:   40   29:   29   13:   14
         648       1:   40   29:   29   15:   16
         649       1:   40   29:   29   17:   17
         650       1:   40   29:   29   18:   18
         651       1:   40   29:   29   19:   19
         652       1:   40   29:   29   20:   20
         653       1:   40   29:   29   21:   21
         654       1:   40   29:   29   22:   22
         655       1:   40   29:   29   23:   23
         656       1:   40   29:   29   24:   24
         657       1:   40   29:   29   25:   25
         658       1:   40   29:   29   26:   26
         659       1:   40   29:   29   27:   27
         660       1:   40   29:   29   28:   28
         661       1:   40   29:   29   29:   29
         662       1:   40   29:   29   30:   30
         663       1:   40   29:   29   31:   31
         664       1:   40   29:   29   32:   32
         665       1:   40   29:   29   33:   33
         666       1:   40   29:   29   34:   34
         667       1:   40   29:   29   35:   35
         668       1:   40   29:   29   36:   36
         669       1:   40   29:   29   37:   37
         670       1:   40   29:   29   38:   38
         671       1:   40   29:   29   39:   39
         672       1:   40   29:   29   40:   40
         673       1:   40   30:   30    1:    2
         674       1:   40   30:   30    3:    4
         675       1:   40   30:   30    5:    6
         676       1:   40   30:   30    7:    8
         677       1:   40   30:   30    9:   10
         678       1:   40   30:   30   11:   12
         679       1:   40   30:   30   13:   14
         680       1:   40   30:   30   15:   16
         681       1:   40   30:   30   17:   17
         682       1:   40   30:   30   18:   18
         683       1:   40   30:   30   19:   19
         684       1:   40   30:   30   20:   20
         685       1:   40   30:   30   21:   21
         686       1:   40   30:   30   22:   22
         687       1:   40   30:   30   23:   23
         688       1:   40   30:   30   24:   24
         689       1:   40   30:   30   25:   25
         690       1:   40   30:   30   26:   26
         691       1:   40   30:   30   27:   27
         692       1:   40   30:   30   28:   28
         693       1:   40   30:   30   29:   29
         694       1:   40   30:   30   30:   30
         695       1:   40   30:   30   31:   31
         696       1:   40   30:   30   32:   32
         697       1:   40   30:   30   33:   33
         698       1:   40   30:   30   34:   34
         699       1:   40   30:   30   35:   35
         700       1:   40   30:   30   36:   36
         701       1:   40   30:   30   37:   37
         702       1:   40   30:   30   38:   38
         703       1:   40   30:   30   39:   39
         704       1:   40   30:   30   40:   40
         705       1:   40   31:   31    1:    2
         706       1:   40   31:   31    3:    4
         707       1:   40   31:   31    5:    6
         708       1:   40   31:   31    7:    8
         709       1:   40   31:   31    9:   10
         710       1:   40   31:   31   11:   12
         711       1:   40   31:   31   13:   14
         712       1:   40   31:   31   15:   16
         713       1:   40   31:   31   17:   17
         714       1:   40   31:   31   18:   18
         715       1:   40   31:   31   19:   19
         716       1:   40   31:   31   20:   20
         717       1:   40   31:   31   21:   21
         718       1:   40   31:   31   22:   22
         719       1:   40   31:   31   23:   23
         720       1:   40   31:   31   24:   24
         721       1:   40   31:   31   25:   25
         722       1:   40   31:   31   26:   26
         723       1:   40   31:   31   27:   27
         724       1:   40   31:   31   28:   28
         725       1:   40   31:   31   29:   29
         726       1:   40   31:   31   30:   30
         727       1:   40   31:   31   31:   31
         728       1:   40   31:   31   32:   32
         729       1:   40   31:   31   33:   33
         730       1:   40   31:   31   34:   34
         731       1:   40   31:   31   35:   35
         732       1:   40   31:   31   36:   36
         733       1:   40   31:   31   37:   37
         734       1:   40   31:   31   38:   38
         735       1:   40   31:   31   39:   39
         736       1:   40   31:   31   40:   40
         737       1:   40   32:   32    1:    2
         738       1:   40   32:   32    3:    4
         739       1:   40   32:   32    5:    6
         740       1:   40   32:   32    7:    8
         741       1:   40   32:   32    9:   10
         742       1:   40   32:   32   11:   12
         743       1:   40   32:   32   13:   14
         744       1:   40   32:   32   15:   16
         745       1:   40   32:   32   17:   17
         746       1:   40   32:   32   18:   18
         747       1:   40   32:   32   19:   19
         748       1:   40   32:   32   20:   20
         749       1:   40   32:   32   21:   21
         750       1:   40   32:   32   22:   22
         751       1:   40   32:   32   23:   23
         752       1:   40   32:   32   24:   24
         753       1:   40   32:   32   25:   25
         754       1:   40   32:   32   26:   26
         755       1:   40   32:   32   27:   27
         756       1:   40   32:   32   28:   28
         757       1:   40   32:   32   29:   29
         758       1:   40   32:   32   30:   30
         759       1:   40   32:   32   31:   31
         760       1:   40   32:   32   32:   32
         761       1:   40   32:   32   33:   33
         762       1:   40   32:   32   34:   34
         763       1:   40   32:   32   35:   35
         764       1:   40   32:   32   36:   36
         765       1:   40   32:   32   37:   37
         766       1:   40   32:   32   38:   38
         767       1:   40   32:   32   39:   39
         768       1:   40   32:   32   40:   40
         769       1:   40   33:   33    1:    2
         770       1:   40   33:   33    3:    4
         771       1:   40   33:   33    5:    6
         772       1:   40   33:   33    7:    8
         773       1:   40   33:   33    9:   10
         774       1:   40   33:   33   11:   12
         775       1:   40   33:   33   13:   14
         776       1:   40   33:   33   15:   16
         777       1:   40   33:   33   17:   17
         778       1:   40   33:   33   18:   18
         779       1:   40   33:   33   19:   19
         780       1:   40   33:   33   20:   20
         781       1:   40   33:   33   21:   21
         782       1:   40   33:   33   22:   22
         783       1:   40   33:   33   23:   23
         784       1:   40   33:   33   24:   24
         785       1:   40   33:   33   25:   25
         786       1:   40   33:   33   26:   26
         787       1:   40   33:   33   27:   27
         788       1:   40   33:   33   28:   28
         789       1:   40   33:   33   29:   29
         790       1:   40   33:   33   30:   30
         791       1:   40   33:   33   31:   31
         792       1:   40   33:   33   32:   32
         793       1:   40   33:   33   33:   33
         794       1:   40   33:   33   34:   34
         795       1:   40   33:   33   35:   35
         796       1:   40   33:   33   36:   36
         797       1:   40   33:   33   37:   37
         798       1:   40   33:   33   38:   38
         799       1:   40   33:   33   39:   39
         800       1:   40   33:   33   40:   40
         801       1:   40   34:   34    1:    2
         802       1:   40   34:   34    3:    4
         803       1:   40   34:   34    5:    6
         804       1:   40   34:   34    7:    8
         805       1:   40   34:   34    9:   10
         806       1:   40   34:   34   11:   12
         807       1:   40   34:   34   13:   14
         808       1:   40   34:   34   15:   16
         809       1:   40   34:   34   17:   17
         810       1:   40   34:   34   18:   18
         811       1:   40   34:   34   19:   19
         812       1:   40   34:   34   20:   20
         813       1:   40   34:   34   21:   21
         814       1:   40   34:   34   22:   22
         815       1:   40   34:   34   23:   23
         816       1:   40   34:   34   24:   24
         817       1:   40   34:   34   25:   25
         818       1:   40   34:   34   26:   26
         819       1:   40   34:   34   27:   27
         820       1:   40   34:   34   28:   28
         821       1:   40   34:   34   29:   29
         822       1:   40   34:   34   30:   30
         823       1:   40   34:   34   31:   31
         824       1:   40   34:   34   32:   32
         825       1:   40   34:   34   33:   33
         826       1:   40   34:   34   34:   34
         827       1:   40   34:   34   35:   35
         828       1:   40   34:   34   36:   36
         829       1:   40   34:   34   37:   37
         830       1:   40   34:   34   38:   38
         831       1:   40   34:   34   39:   39
         832       1:   40   34:   34   40:   40
         833       1:   40   35:   35    1:    2
         834       1:   40   35:   35    3:    4
         835       1:   40   35:   35    5:    6
         836       1:   40   35:   35    7:    8
         837       1:   40   35:   35    9:   10
         838       1:   40   35:   35   11:   12
         839       1:   40   35:   35   13:   14
         840       1:   40   35:   35   15:   16
         841       1:   40   35:   35   17:   17
         842       1:   40   35:   35   18:   18
         843       1:   40   35:   35   19:   19
         844       1:   40   35:   35   20:   20
         845       1:   40   35:   35   21:   21
         846       1:   40   35:   35   22:   22
         847       1:   40   35:   35   23:   23
         848       1:   40   35:   35   24:   24
         849       1:   40   35:   35   25:   25
         850       1:   40   35:   35   26:   26
         851       1:   40   35:   35   27:   27
         852       1:   40   35:   35   28:   28
         853       1:   40   35:   35   29:   29
         854       1:   40   35:   35   30:   30
         855       1:   40   35:   35   31:   31
         856       1:   40   35:   35   32:   32
         857       1:   40   35:   35   33:   33
         858       1:   40   35:   35   34:   34
         859       1:   40   35:   35   35:   35
         860       1:   40   35:   35   36:   36
         861       1:   40   35:   35   37:   37
         862       1:   40   35:   35   38:   38
         863       1:   40   35:   35   39:   39
         864       1:   40   35:   35   40:   40
         865       1:   40   36:   36    1:    2
         866       1:   40   36:   36    3:    4
         867       1:   40   36:   36    5:    6
         868       1:   40   36:   36    7:    8
         869       1:   40   36:   36    9:   10
         870       1:   40   36:   36   11:   12
         871       1:   40   36:   36   13:   14
         872       1:   40   36:   36   15:   16
         873       1:   40   36:   36   17:   17
         874       1:   40   36:   36   18:   18
         875       1:   40   36:   36   19:   19
         876       1:   40   36:   36   20:   20
         877       1:   40   36:   36   21:   21
         878       1:   40   36:   36   22:   22
         879       1:   40   36:   36   23:   23
         880       1:   40   36:   36   24:   24
         881       1:   40   36:   36   25:   25
         882       1:   40   36:   36   26:   26
         883       1:   40   36:   36   27:   27
         884       1:   40   36:   36   28:   28
         885       1:   40   36:   36   29:   29
         886       1:   40   36:   36   30:   30
         887       1:   40   36:   36   31:   31
         888       1:   40   36:   36   32:   32
         889       1:   40   36:   36   33:   33
         890       1:   40   36:   36   34:   34
         891       1:   40   36:   36   35:   35
         892       1:   40   36:   36   36:   36
         893       1:   40   36:   36   37:   37
         894       1:   40   36:   36   38:   38
         895       1:   40   36:   36   39:   39
         896       1:   40   36:   36   40:   40
         897       1:   40   37:   37    1:    2
         898       1:   40   37:   37    3:    4
         899       1:   40   37:   37    5:    6
         900       1:   40   37:   37    7:    8
         901       1:   40   37:   37    9:   10
         902       1:   40   37:   37   11:   12
         903       1:   40   37:   37   13:   14
         904       1:   40   37:   37   15:   16
         905       1:   40   37:   37   17:   17
         906       1:   40   37:   37   18:   18
         907       1:   40   37:   37   19:   19
         908       1:   40   37:   37   20:   20
         909       1:   40   37:   37   21:   21
         910       1:   40   37:   37   22:   22
         911       1:   40   37:   37   23:   23
         912       1:   40   37:   37   24:   24
         913       1:   40   37:   37   25:   25
         914       1:   40   37:   37   26:   26
         915       1:   40   37:   37   27:   27
         916       1:   40   37:   37   28:   28
         917       1:   40   37:   37   29:   29
         918       1:   40   37:   37   30:   30
         919       1:   40   37:   37   31:   31
         920       1:   40   37:   37   32:   32
         921       1:   40   37:   37   33:   33
         922       1:   40   37:   37   34:   34
         923       1:   40   37:   37   35:   35
         924       1:   40   37:   37   36:   36
         925       1:   40   37:   37   37:   37
         926       1:   40   37:   37   38:   38
         927       1:   40   37:   37   39:   39
         928       1:   40   37:   37   40:   40
         929       1:   40   38:   38    1:    2
         930       1:   40   38:   38    3:    4
         931       1:   40   38:   38    5:    6
         932       1:   40   38:   38    7:    8
         933       1:   40   38:   38    9:   10
         934       1:   40   38:   38   11:   12
         935       1:   40   38:   38   13:   14
         936       1:   40   38:   38   15:   16
         937       1:   40   38:   38   17:   17
         938       1:   40   38:   38   18:   18
         939       1:   40   38:   38   19:   19
         940       1:   40   38:   38   20:   20
         941       1:   40   38:   38   21:   21
         942       1:   40   38:   38   22:   22
         943       1:   40   38:   38   23:   23
         944       1:   40   38:   38   24:   24
         945       1:   40   38:   38   25:   25
         946       1:   40   38:   38   26:   26
         947       1:   40   38:   38   27:   27
         948       1:   40   38:   38   28:   28
         949       1:   40   38:   38   29:   29
         950       1:   40   38:   38   30:   30
         951       1:   40   38:   38   31:   31
         952       1:   40   38:   38   32:   32
         953       1:   40   38:   38   33:   33
         954       1:   40   38:   38   34:   34
         955       1:   40   38:   38   35:   35
         956       1:   40   38:   38   36:   36
         957       1:   40   38:   38   37:   37
         958       1:   40   38:   38   38:   38
         959       1:   40   38:   38   39:   39
         960       1:   40   38:   38   40:   40
         961       1:   40   39:   39    1:    2
         962       1:   40   39:   39    3:    4
         963       1:   40   39:   39    5:    6
         964       1:   40   39:   39    7:    8
         965       1:   40   39:   39    9:   10
         966       1:   40   39:   39   11:   12
         967       1:   40   39:   39   13:   14
         968       1:   40   39:   39   15:   16
         969       1:   40   39:   39   17:   17
         970       1:   40   39:   39   18:   18
         971       1:   40   39:   39   19:   19
         972       1:   40   39:   39   20:   20
         973       1:   40   39:   39   21:   21
         974       1:   40   39:   39   22:   22
         975       1:   40   39:   39   23:   23
         976       1:   40   39:   39   24:   24
         977       1:   40   39:   39   25:   25
         978       1:   40   39:   39   26:   26
         979       1:   40   39:   39   27:   27
         980       1:   40   39:   39   28:   28
         981       1:   40   39:   39   29:   29
         982       1:   40   39:   39   30:   30
         983       1:   40   39:   39   31:   31
         984       1:   40   39:   39   32:   32
         985       1:   40   39:   39   33:   33
         986       1:   40   39:   39   34:   34
         987       1:   40   39:   39   35:   35
         988       1:   40   39:   39   36:   36
         989       1:   40   39:   39   37:   37
         990       1:   40   39:   39   38:   38
         991       1:   40   39:   39   39:   39
         992       1:   40   39:   39   40:   40
         993       1:   40   40:   40    1:    2
         994       1:   40   40:   40    3:    4
         995       1:   40   40:   40    5:    6
         996       1:   40   40:   40    7:    8
         997       1:   40   40:   40    9:   10
         998       1:   40   40:   40   11:   12
         999       1:   40   40:   40   13:   14
        1000       1:   40   40:   40   15:   16
        1001       1:   40   40:   40   17:   17
        1002       1:   40   40:   40   18:   18
        1003       1:   40   40:   40   19:   19
        1004       1:   40   40:   40   20:   20
        1005       1:   40   40:   40   21:   21
        1006       1:   40   40:   40   22:   22
        1007       1:   40   40:   40   23:   23
        1008       1:   40   40:   40   24:   24
        1009       1:   40   40:   40   25:   25
        1010       1:   40   40:   40   26:   26
        1011       1:   40   40:   40   27:   27
        1012       1:   40   40:   40   28:   28
        1013       1:   40   40:   40   29:   29
        1014       1:   40   40:   40   30:   30
        1015       1:   40   40:   40   31:   31
        1016       1:   40   40:   40   32:   32
        1017       1:   40   40:   40   33:   33
        1018       1:   40   40:   40   34:   34
        1019       1:   40   40:   40   35:   35
        1020       1:   40   40:   40   36:   36
        1021       1:   40   40:   40   37:   37
        1022       1:   40   40:   40   38:   38
[...]
(Free)Eharris+ p_basis*V_orbitals  =      -14783.442724
>> End of run:  25-SEP-2016   8:32:40
************************************************************************************************************************
***             WIDEN YOUR WINDOW TO 120 CHARACTERS.  Use 'enscript -r -fCourier9' to print this document            ***
************************************************************************************************************************

---------------------------------------------- PETSc Performance Summary: ----------------------------------------------

/home/keceli/scratch2/siesta-qetsc/Obj/siesta on a arch-xl named Q02-I0-J07.vesta.itd with 1024 processors, by Unknown Sun Sep 25 08:32:40 2016
Using Petsc Development GIT revision: v3.7.3-1204-g68f0caa  GIT Date: 2016-08-19 16:41:02 -0500

                         Max       Max/Min        Avg      Total 
Time (sec):           1.644e+03      1.00001   1.644e+03
Objects:              4.832e+03      1.06338   4.756e+03
Flops:                4.284e+09      0.00000   2.283e+09  2.338e+12
Flops/sec:            2.607e+06      0.00000   1.389e+06  1.422e+09
MPI Messages:         7.041e+04      8.07472   4.551e+04  4.660e+07
MPI Message Lengths:  1.414e+09   2865.84102   2.928e+03  1.364e+11
MPI Reductions:       1.545e+04      1.44598

Flop counting convention: 1 flop = 1 real number operation of type (multiply/divide/add/subtract)
                            e.g., VecAXPY() for real vectors of length N --> 2N flops
                            and VecAXPY() for complex vectors of length N --> 8N flops

Summary of Stages:   ----- Time ------  ----- Flops -----  --- Messages ---  -- Message Lengths --  -- Reductions --
                        Avg     %Total     Avg     %Total   counts   %Total     Avg         %Total   counts   %Total 
 0:      Main Stage: 1.9428e-04   0.0%  0.0000e+00   0.0%  0.000e+00   0.0%  0.000e+00        0.0%  0.000e+00   0.0% 
 1:     siesta_init: 2.5311e+00   0.2%  0.0000e+00   0.0%  0.000e+00   0.0%  0.000e+00        0.0%  0.000e+00   0.0% 
 2:   siesta_forces: 7.9841e+02  48.6%  0.0000e+00   0.0%  0.000e+00   0.0%  0.000e+00        0.0%  0.000e+00   0.0% 
 3:    siesta_solve: 1.6910e-03   0.0%  0.0000e+00   0.0%  0.000e+00   0.0%  0.000e+00        0.0%  0.000e+00   0.0% 
 4:    siesta2qetsc: 1.1203e+01   0.7%  0.0000e+00   0.0%  1.984e+03   0.0%  7.746e-03        0.0%  8.500e+01   0.8% 
 5: qetsc_setup_eps: 2.0433e+01   1.2%  6.0586e+09   0.3%  5.912e+06  12.7%  1.563e+03       53.4%  3.080e+02   2.9% 
 6: qetsc_solve_eps: 2.3885e+02  14.5%  2.3316e+12  99.7%  3.352e+07  71.9%  1.362e+03       46.5%  4.174e+03  39.0% 
 7:   qetsc_eigvals: 3.3766e-04   0.0%  0.0000e+00   0.0%  0.000e+00   0.0%  0.000e+00        0.0%  0.000e+00   0.0% 
 8:   qetsc_density: 2.0204e+01   1.2%  0.0000e+00   0.0%  7.165e+06  15.4%  2.932e+00        0.1%  9.508e+03  88.9% 
10:     siesta_misc: 5.4113e+02  32.9%  0.0000e+00   0.0%  0.000e+00   0.0%  0.000e+00        0.0%  0.000e+00   0.0% 
11:     siesta_move: 4.2835e-05   0.0%  0.0000e+00   0.0%  0.000e+00   0.0%  0.000e+00        0.0%  0.000e+00   0.0% 
12: siesta_analysis: 7.1030e-04   0.0%  0.0000e+00   0.0%  0.000e+00   0.0%  0.000e+00        0.0%  0.000e+00   0.0% 
13:      siesta_end: 1.0867e+01   0.7%  0.0000e+00   0.0%  0.000e+00   0.0%  0.000e+00        0.0%  0.000e+00   0.0% 

------------------------------------------------------------------------------------------------------------------------
See the 'Profiling' chapter of the users' manual for details on interpreting output.
Phase summary info:
   Count: number of times phase was executed
   Time and Flops: Max - maximum over all processors
                   Ratio - ratio of maximum to minimum over all processors
   Mess: number of messages sent
   Avg. len: average message length (bytes)
   Reduct: number of global reductions
   Global: entire computation
   Stage: stages of a computation. Set stages with PetscLogStagePush() and PetscLogStagePop().
      %T - percent time in this phase         %F - percent flops in this phase
      %M - percent messages in this phase     %L - percent message lengths in this phase
      %R - percent reductions in this phase
   Total Mflop/s: 10e-6 * (sum of flops over all processors)/(max time over all processors)
------------------------------------------------------------------------------------------------------------------------
Event                Count      Time (sec)     Flops                             --- Global ---  --- Stage ---   Total
                   Max Ratio  Max     Ratio   Max  Ratio  Mess   Avg len Reduct  %T %F %M %L %R  %T %F %M %L %R Mflop/s
------------------------------------------------------------------------------------------------------------------------

--- Event Stage 0: Main Stage


--- Event Stage 1: siesta_init


--- Event Stage 2: siesta_forces


--- Event Stage 3: siesta_solve


--- Event Stage 4: siesta2qetsc

MatConvert            18 1.0 7.2675e-02 6.3 0.00e+00 0.0 0.0e+00 0.0e+00 0.0e+00  0  0  0  0  0   0  0  0  0  0     0
MatAssemblyBegin      19 1.0 1.1084e+01880.4 0.00e+00 0.0 0.0e+00 0.0e+00 3.8e+01  1  0  0  0  0  96  0  0  0 45     0
MatAssemblyEnd        19 1.0 8.8611e-02 1.0 0.00e+00 0.0 2.0e+03 1.8e+02 4.5e+01  0  0  0  0  0   1  0100100 53     0
VecSet                19 1.0 4.1853e-04 6.2 0.00e+00 0.0 0.0e+00 0.0e+00 0.0e+00  0  0  0  0  0   0  0  0  0  0     0

--- Event Stage 5: qetsc_setup_eps

MatScale              34 1.0 4.0786e-02291.9 8.00e+06 0.0 0.0e+00 0.0e+00 0.0e+00  0  0  0  0  0   0100  0  0  0 148546
MatAssemblyBegin      34 1.0 1.3578e+00702.0 0.00e+00 0.0 0.0e+00 0.0e+00 3.4e+01  0  0  0  0  0   2  0  0  0 11     0
MatAssemblyEnd        34 1.0 2.9535e+00 1.0 0.00e+00 0.0 2.9e+05 4.9e+02 1.4e+02  0  0  1  0  1  14  0  5  0 44     0
MatGetSubMatrice      17 1.0 1.6385e+0120.5 0.00e+00 0.0 5.6e+06 1.3e+04 5.1e+01  1  0 12 53  0  54  0 95100 17     0
MatAXPY               17 1.0 8.6431e-02743.1 0.00e+00 0.0 0.0e+00 0.0e+00 0.0e+00  0  0  0  0  0   0  0  0  0  0     0
MatRedundantMat       17 1.0 2.0863e+01 1.1 0.00e+00 0.0 5.9e+06 1.2e+04 3.1e+02  1  0 13 53  3  99  0100100 99     0
MatMPIConcateSeq      17 1.0 2.0057e+01 4.5 0.00e+00 0.0 2.9e+05 4.9e+02 2.6e+02  1  0  1  0  2  45  0  5  0 83     0
VecSet                17 1.0 9.3129e-05 1.5 0.00e+00 0.0 0.0e+00 0.0e+00 0.0e+00  0  0  0  0  0   0  0  0  0  0     0

--- Event Stage 6: qetsc_solve_eps

MatMult             4422 0.0 2.6919e+01 0.0 4.16e+09 0.0 2.7e+07 1.9e+03 0.0e+00  1 96 57 38  0   6 96 80 82  0 83502
MatSolve            1543 0.0 7.4808e+01 0.0 0.00e+00 0.0 5.8e+06 5.1e+02 1.1e+03  3  0 12  2 11  21  0 17  5 27     0
MatCholFctrSym         1 1.0 3.7080e+00 1.0 0.00e+00 0.0 0.0e+00 0.0e+00 5.0e+00  0  0  0  0  0   2  0  0  0  0     0
MatCholFctrNum        22 1.2 9.8652e+01 1.2 0.00e+00 0.0 0.0e+00 0.0e+00 0.0e+00  6  0  0  0  0  40  0  0  0  0     0
MatCopy               21 1.2 4.4699e+00 1.2 0.00e+00 0.0 0.0e+00 0.0e+00 8.4e+01  0  0  0  0  1   2  0  0  0  2     0
MatConvert             1 1.0 8.8363e-0312.4 0.00e+00 0.0 0.0e+00 0.0e+00 0.0e+00  0  0  0  0  0   0  0  0  0  0     0
MatAssemblyBegin      47 1.2 9.5408e+001016.5 0.00e+00 0.0 0.0e+00 0.0e+00 9.0e+01  0  0  0  0  1   1  0  0  0  2     0
MatAssemblyEnd        47 1.2 4.1437e+00 1.2 0.00e+00 0.0 4.0e+05 4.9e+02 2.3e+02  0  0  1  0  2   2  0  1  0  6     0
MatGetRow          15860 1.2 9.2920e-0157.4 0.00e+00 0.0 0.0e+00 0.0e+00 0.0e+00  0  0  0  0  0   0  0  0  0  0     0
MatGetRowIJ            1 1.0 2.2150e-06 2.0 0.00e+00 0.0 0.0e+00 0.0e+00 0.0e+00  0  0  0  0  0   0  0  0  0  0     0
MatGetSubMatrice       2 1.0 1.9455e+0024.1 0.00e+00 0.0 6.6e+05 1.3e+04 6.0e+00  0  0  1  6  0   1  0  2 13  0     0
MatGetOrdering         1 1.0 2.5941e-04 1.1 0.00e+00 0.0 0.0e+00 0.0e+00 0.0e+00  0  0  0  0  0   0  0  0  0  0     0
MatZeroEntries        21 1.2 3.7658e-02225.6 0.00e+00 0.0 0.0e+00 0.0e+00 0.0e+00  0  0  0  0  0   0  0  0  0  0     0
MatAXPY               22 1.2 9.0444e+00 1.2 0.00e+00 0.0 3.7e+05 4.9e+02 2.6e+02  1  0  1  0  2   4  0  1  0  6     0
MatRedundantMat        2 1.0 2.4740e+00 1.0 0.00e+00 0.0 7.0e+05 1.2e+04 3.6e+01  0  0  1  6  0   1  0  2 14  1     0
MatMPIConcateSeq       2 1.0 2.3923e+00 4.6 0.00e+00 0.0 3.4e+04 4.9e+02 3.0e+01  0  0  0  0  0   0  0  0  0  1     0
VecDot                92 0.0 5.6680e-01 0.0 4.48e+04 0.0 0.0e+00 0.0e+00 3.7e+01  0  0  0  0  0   0  0  0  0  1    32
VecCopy               18 0.0 7.5319e-05 0.0 0.00e+00 0.0 0.0e+00 0.0e+00 0.0e+00  0  0  0  0  0   0  0  0  0  0     0
VecSet              156960.3 1.0128e-02105.1 0.00e+00 0.0 0.0e+00 0.0e+00 0.0e+00  0  0  0  0  0   0  0  0  0  0     0
VecScatterBegin     7472 0.0 1.0076e+01 0.0 0.00e+00 0.0 3.2e+07 1.7e+03 1.1e+03  0  0 69 40 10   1  0 96 86 27     0
VecScatterEnd       5947 0.0 7.3710e-01 0.0 0.00e+00 0.0 0.0e+00 0.0e+00 0.0e+00  0  0  0  0  0   0  0  0  0  0     0
VecSetRandom          18 0.0 2.7491e-03 0.0 0.00e+00 0.0 0.0e+00 0.0e+00 0.0e+00  0  0  0  0  0   0  0  0  0  0     0
EPSSetUp              22 1.0 1.2153e+02 1.0 0.00e+00 0.0 1.1e+06 8.2e+03 6.9e+02  7  0  2  6  6  51  0  3 14 17     0
EPSSolve              18 1.0 2.1248e+02 1.0 4.28e+09 0.0 3.3e+07 1.7e+03 4.0e+03 13100 70 40 37  89100 98 86 96 10973
STSetUp               40 1.0 9.5207e+01 1.0 0.00e+00 0.0 3.0e+05 4.9e+02 3.0e+02  6  0  1  0  3  39  0  1  0  7     0
STApply             1543 0.0 7.5231e+01 0.0 1.45e+09 0.0 1.5e+07 1.4e+03 1.1e+03  3 34 33 16 11  23 34 46 34 27 10620
STMatSolve          1543 0.0 7.5093e+01 0.0 0.00e+00 0.0 5.8e+06 5.1e+02 1.1e+03  3  0 12  2 11  21  0 17  5 27     0
KSPSetUp              22 1.2 5.6319e-05 2.5 0.00e+00 0.0 0.0e+00 0.0e+00 0.0e+00  0  0  0  0  0   0  0  0  0  0     0
KSPSolve            1543 0.0 7.4888e+01 0.0 0.00e+00 0.0 5.8e+06 5.1e+02 1.1e+03  3  0 12  2 11  21  0 17  5 27     0
PCSetUp               22 1.2 1.0236e+02 1.2 0.00e+00 0.0 0.0e+00 0.0e+00 1.0e+01  6  0  0  0  0  42  0  0  0  0     0
PCApply             1543 0.0 7.4817e+01 0.0 0.00e+00 0.0 5.8e+06 5.1e+02 1.1e+03  3  0 12  2 11  21  0 17  5 27     0
BVCreate              4010.0 1.1868e-0216.2 0.00e+00 0.0 0.0e+00 0.0e+00 1.7e+02  0  0  0  0  2   0  0  0  0  4     0
BVCopy                18 0.0 1.9828e-04 0.0 0.00e+00 0.0 0.0e+00 0.0e+00 0.0e+00  0  0  0  0  0   0  0  0  0  0     0
BVMultVec           2830 0.0 1.5978e-01 0.0 5.65e+07 0.0 0.0e+00 0.0e+00 0.0e+00  0  2  0  0  0   0  2  0  0  0 252843
BVMultInPlace         18 0.0 1.2766e-02 0.0 1.60e+07 0.0 0.0e+00 0.0e+00 0.0e+00  0  0  0  0  0   0  0  0  0  0 134212
BVDotVec            2830 0.0 1.7552e+01 0.0 2.72e+09 0.0 1.7e+07 1.9e+03 2.0e+03  1 63 36 24 19   5 63 50 52 48 83414
BVOrthogonalizeV    1458 0.0 1.7756e+01 0.0 2.78e+09 0.0 1.7e+07 1.9e+03 2.0e+03  1 64 36 24 19   5 65 50 52 48 84731
BVScale             1543 0.0 1.2359e-02 0.0 3.76e+05 0.0 0.0e+00 0.0e+00 0.0e+00  0  0  0  0  0   0  0  0  0  0 22667
BVNormVec             92 0.0 5.7029e-01 0.0 8.66e+07 0.0 3.1e+05 1.9e+03 3.7e+01  0  1  1  0  0   0  1  1  1  1 45796
BVSetRandom           18 0.0 2.9553e-03 0.0 0.00e+00 0.0 0.0e+00 0.0e+00 0.0e+00  0  0  0  0  0   0  0  0  0  0     0
DSSolve               18 0.0 2.9199e-01 0.0 0.00e+00 0.0 0.0e+00 0.0e+00 0.0e+00  0  0  0  0  0   0  0  0  0  0     0
DSVectors           1440 0.0 4.1488e-03 0.0 0.00e+00 0.0 0.0e+00 0.0e+00 0.0e+00  0  0  0  0  0   0  0  0  0  0     0
DSOther               18 0.0 3.2887e-02 0.0 0.00e+00 0.0 0.0e+00 0.0e+00 0.0e+00  0  0  0  0  0   0  0  0  0  0     0

--- Event Stage 7: qetsc_eigvals


--- Event Stage 8: qetsc_density

VecCopy             2304 1.0 2.3151e-02 5.6 0.00e+00 0.0 0.0e+00 0.0e+00 0.0e+00  0  0  0  0  0   0  0  0  0  0     0
VecSet               128 1.0 1.4841e-03 2.0 0.00e+00 0.0 0.0e+00 0.0e+00 0.0e+00  0  0  0  0  0   0  0  0  0  0     0
VecScatterBegin     4648 1.0 9.4997e+0012.9 0.00e+00 0.0 2.4e+06 3.0e+01 2.3e+03  1  0  5  0 22  45  0 34 54 24     0
VecScatterEnd       2344 1.0 6.1989e+00 1.5 0.00e+00 0.0 0.0e+00 0.0e+00 0.0e+00  0  0  0  0  0  29  0  0  0  0     0
BVCopy              2304 1.0 6.3658e-02 4.6 0.00e+00 0.0 0.0e+00 0.0e+00 0.0e+00  0  0  0  0  0   0  0  0  0  0     0

--- Event Stage 9: Unknown


--- Event Stage 10: siesta_misc


--- Event Stage 11: siesta_move


--- Event Stage 12: siesta_analysis


--- Event Stage 13: siesta_end

------------------------------------------------------------------------------------------------------------------------

Memory usage is given in bytes:

Object Type          Creations   Destructions     Memory  Descendants' Mem.
Reports information only for process 0.

--- Event Stage 0: Main Stage


--- Event Stage 1: siesta_init


--- Event Stage 2: siesta_forces


--- Event Stage 3: siesta_solve


--- Event Stage 4: siesta2qetsc

              Matrix    57              0            0     0.
              Vector    20              1         1648     0.
      Vector Scatter    19              0            0     0.
           Index Set     2              2        12644     0.

--- Event Stage 5: qetsc_setup_eps

              Matrix    68             51     35837972     0.
              Vector    35             34       430576     0.
      Vector Scatter    17             17        18224     0.
           Index Set    68             34       208080     0.
          EPS Solver     1              0            0     0.
  Spectral Transform     1              0            0     0.
       Krylov Solver     1              0            0     0.
      Preconditioner     1              0            0     0.
       Basis Vectors     1              0            0     0.
         PetscRandom     1              0            0     0.
              Region     1              0            0     0.
       Direct Solver     1              0            0     0.

--- Event Stage 6: qetsc_solve_eps

              Matrix    78             66    123587468     0.
              Vector   199            177      1285800     0.
      Vector Scatter    26             22        23584     0.
           Index Set    59             54       300768     0.
          EPS Solver     1              0            0     0.
  Spectral Transform     1              0            0     0.
       Krylov Solver     1              0            0     0.
      Preconditioner     1              0            0     0.
       Basis Vectors    23             21        22176     0.
              Region     1              0            0     0.
       Direct Solver     1              0            0     0.

--- Event Stage 7: qetsc_eigvals


--- Event Stage 8: qetsc_density

              Vector   146             18        64800     0.
      Vector Scatter  1280           1152      1248048     0.
           Index Set  2432           2432      2745344     0.

--- Event Stage 9: Unknown


--- Event Stage 10: siesta_misc


--- Event Stage 11: siesta_move


--- Event Stage 12: siesta_analysis


--- Event Stage 13: siesta_end

              Viewer     1              0            0     0.
========================================================================================================================
Average time to get PetscTime(): 1.28313e-07
Average time for MPI_Barrier(): 3.74012e-06
Average time for zero size MPI_Send(): 1.40531e-05
#PETSc Option Table entries:
-eps_interval -2.3,0.
-eps_krylovschur_detect_zeros 0
-eps_krylovschur_partitions 64
-ioptbin 3
-ioptinertia 1
-ioptleft 2
-isglobal 1
-log_view
-mat_mumps_cntl_3 1e-12
-mat_mumps_icntl_13 1
-mat_mumps_icntl_24 1
-mat_mumps_icntl_28 2
-mat_mumps_icntl_29 1
-roptbuffer 0.1
-roptdiff 0.1
-roptleft -2.3
-roptright 0.
-st_pc_factor_mat_solver_package mumps
#End of PETSc Option Table entries
Compiled with FORTRAN kernels
Compiled with full precision matrices (default)
sizeof(short) 2 sizeof(int) 4 sizeof(long) 8 sizeof(void*) 8 sizeof(PetscScalar) 8 sizeof(PetscInt) 4
Configure options: --known-has-attribute-aligned=1 --download-chaco=0 --download-cmake=0 --download-hypre=0 --download-metis=1 --download-mumps=1 --download-parmetis=1 --download-plapack=0 --download-prometheus=0 --download-ptscotch=1 --download-spai=0 --download-spooles=0 --download-superlu=0 --download-superlu_dist=0 --download-triangle=0 --known-bits-per-byte=8 --known-level1-dcache-assoc=0 --known-level1-dcache-linesize=32 --known-level1-dcache-size=32768 --known-memcmp-ok=1 --known-mpi-c-double-complex=1 --known-mpi-int64_t=1 --known-mpi-long-double=1 --known-mpi-shared-libraries=0 --known-sdot-returns-double=0 --known-sizeof-MPI_Comm=4 --known-sizeof-MPI_Fint=4 --known-sizeof-char=1 --known-sizeof-double=8 --known-sizeof-float=4 --known-sizeof-int=4 --known-sizeof-long-long=8 --known-sizeof-long=8 --known-sizeof-short=2 --known-sizeof-size_t=8 --known-sizeof-void-p=8 --known-snrm2-returns-double=0 --with-batch=1 --with-blacs-include=/soft/libraries/alcf/current/xl/SCALAPACK/ --with-blacs-lib=/soft/libraries/alcf/current/xl/SCALAPACK/lib/libscalapack.a --with-blas-lapack-lib="-L/soft/libraries/alcf/current/xl/LAPACK/lib -llapack -L/soft/libraries/alcf/current/xl/BLAS/lib -lblas" --with-cc=mpixlc_r --with-clib-autodetect=0 --with-cxx=mpixlcxx_r --with-cxxlib-autodetect=0 --with-debugging=0 --with-fc="mpixlf77_r -qnosave" --with-fortran-kernels=1 --with-fortranlib-autodetect=0 --with-is-color-value-type=short --with-scalapack-include=/soft/libraries/alcf/current/xl/SCALAPACK/ --with-scalapack-lib=/soft/libraries/alcf/current/xl/SCALAPACK/lib/libscalapack.a --with-shared-libraries=0 --with-x=0 -COPTFLAGS=" -g -O3 -qhot=level=0 -qsimd=auto -qmaxmem=-1 -qstrict -qstrict_induction" -CXXOPTFLAGS="  -g -O3 -qhot=level=0 -qsimd=auto -qmaxmem=-1 -qstrict -qstrict_induction" -FOPTFLAGS=" -g -O3 -qhot=level=0 -qsimd=auto -qmaxmem=-1 -qstrict -qstrict_induction" LIBS="-lmpichcxx-gcc -lmpichf77-gcc -L/soft/compilers/ibmcmp-feb2015/vacpp/bg/12.1/bglib64 -libmc++ -L/soft/compilers/ibmcmp-feb2015/xlf/bg/14.1/bglib64 -lxlf90_r -lxlomp_ser -lxlfmath" PETSC_ARCH=arch-xl
-----------------------------------------
Libraries compiled on Sat Aug 20 04:19:47 2016 on vestalac2 
Machine characteristics: Linux-2.6.32-573.18.1.el6.ppc64-ppc64-with-redhat-6.7-Santiago
Using PETSc directory: /home/keceli/scratch2/petsc
Using PETSc arch: arch-xl
-----------------------------------------

Using C compiler: mpixlc_r   -g -O3 -qhot=level=0 -qsimd=auto -qmaxmem=-1 -qstrict -qstrict_induction  ${COPTFLAGS} ${CFLAGS}
Using Fortran compiler: mpixlf77_r -qnosave  -g -O3 -qhot=level=0 -qsimd=auto -qmaxmem=-1 -qstrict -qstrict_induction   ${FOPTFLAGS} ${FFLAGS} 
-----------------------------------------

Using include paths: -I/home/keceli/scratch2/petsc/arch-xl/include -I/home/keceli/scratch2/petsc/include -I/home/keceli/scratch2/petsc/include -I/home/keceli/scratch2/petsc/arch-xl/include -I/bgsys/drivers/V1R2M4/ppc64/comm/include -I/bgsys/drivers/V1R2M4/ppc64/comm/lib/xl -I/bgsys/drivers/V1R2M4/ppc64 -I/bgsys/drivers/V1R2M4/ppc64/comm/sys/include -I/bgsys/drivers/V1R2M4/ppc64/spi/include -I/bgsys/drivers/V1R2M4/ppc64/spi/include/kernel/cnk
-----------------------------------------

Using C linker: mpixlc_r
Using Fortran linker: mpixlf77_r -qnosave
Using libraries: -Wl,-rpath,/home/keceli/scratch2/petsc/arch-xl/lib -L/home/keceli/scratch2/petsc/arch-xl/lib -lpetsc -Wl,-rpath,/home/keceli/scratch2/petsc/arch-xl/lib -L/home/keceli/scratch2/petsc/arch-xl/lib -lcmumps -ldmumps -lsmumps -lzmumps -lmumps_common -lpord -Wl,-rpath,/soft/libraries/alcf/current/xl/SCALAPACK/lib -L/soft/libraries/alcf/current/xl/SCALAPACK/lib -lscalapack -L/soft/libraries/alcf/current/xl/LAPACK/lib -llapack -L/soft/libraries/alcf/current/xl/BLAS/lib -lblas -lparmetis -lmetis -lptesmumps -lptscotch -lptscotcherr -lscotch -lscotcherr -lrt -lm -lpthread -ldl -lmpichcxx-gcc -lmpichf77-gcc -L/soft/compilers/ibmcmp-feb2015/vacpp/bg/12.1/bglib64 -libmc++ -L/soft/compilers/ibmcmp-feb2015/xlf/bg/14.1/bglib64 -lxlf90_r -lxlomp_ser -lxlfmath
-----------------------------------------

